# ODT 1.0
# Table Start
# Title: mmArchive Data Table, Fri May 13 10:40:55 BST 2016
# Columns: {Oxs_RungeKuttaEvolve:evolver:Total energy} {Oxs_RungeKuttaEvolve:evolver:Energy calc count} {Oxs_RungeKuttaEvolve:evolver:Max dm/dt} Oxs_RungeKuttaEvolve:evolver:dE/dt {Oxs_RungeKuttaEvolve:evolver:Delta E} Oxs_UniformExchange::Energy {Oxs_UniformExchange::Max Spin Ang} {Oxs_UniformExchange::Stage Max Spin Ang} {Oxs_UniformExchange::Run Max Spin Ang} Oxs_Demag::Energy    Oxs_TimeDriver::Iteration {Oxs_TimeDriver::Stage iteration} Oxs_TimeDriver::Stage Oxs_TimeDriver::mx   Oxs_TimeDriver::my   Oxs_TimeDriver::mz   {Oxs_TimeDriver::Last time step} {Oxs_TimeDriver::Simulation time}
# Units:                        J                                             {}                                         deg/ns                                 J/s                                   J                                 J                              deg                                    deg                                      deg                           J                       {}                            {}                          {}                   {}                   {}                   {}                          s                                 s                
                       6.3067035937827952e-19                            11077                                        1.4667312711951247e-06                  -7.9420283917450572e-26                 -7.5738570391418512e-36              8.8079489752012671e-20             4.2498238969104012                     4.2516192637555026                       4.2516192637555026             5.4259086962626683e-19    1691                          1691                        0                     0.96720772655468668  0.12482104905589442 -4.0987290203772129e-11        3.0428709638714046e-12              5.0000000000000001e-09       
# Table End
#
# Table Start
# Title: mmArchive Data Table, Fri May 13 10:42:50 BST 2016
# Columns: {Oxs_RungeKuttaEvolve:evolver:Total energy} {Oxs_RungeKuttaEvolve:evolver:Energy calc count} {Oxs_RungeKuttaEvolve:evolver:Max dm/dt} Oxs_RungeKuttaEvolve:evolver:dE/dt {Oxs_RungeKuttaEvolve:evolver:Delta E} Oxs_UniformExchange::Energy {Oxs_UniformExchange::Max Spin Ang} {Oxs_UniformExchange::Stage Max Spin Ang} {Oxs_UniformExchange::Run Max Spin Ang} Oxs_Demag::Energy    Oxs_FixedZeeman:fixedzeeman:Energy Oxs_TimeDriver::Iteration {Oxs_TimeDriver::Stage iteration} Oxs_TimeDriver::Stage Oxs_TimeDriver::mx   Oxs_TimeDriver::my   Oxs_TimeDriver::mz   {Oxs_TimeDriver::Last time step} {Oxs_TimeDriver::Simulation time}
# Units:                        J                                             {}                                         deg/ns                                 J/s                                   J                                 J                              deg                                    deg                                      deg                           J                            J                             {}                            {}                          {}                   {}                   {}                   {}                          s                                 s                
                       4.139121965103831e-18                            49                                           1870.5260698622808                   -6.1208002004047096e-10                 -4.3823632507330588e-22              1.099667184252214e-19             5.8165589672020568                     8.3844207164270532                       8.3844207164270532             5.4523501105145908e-19         3.4839202356271509e-18           8                             8                           0                     0.96626875233109666  0.12652939608359232 -0.0062814885732154395        7.1857085584843827e-13              4.9999999999999997e-12       
                       4.1361881694284276e-18                            74                                           1756.9575075254238                   -6.0470191405973733e-10                 -4.7679493796076409e-22              1.1135357065270256e-19             7.7145562142288613                     7.7145562142288613                       8.3844207164270532             5.5282605041076705e-19         3.4720085483649583e-18           13                            4                           1                     0.9642604480938447   0.13350775984598764 -0.012434941526180373        7.8757058279121861e-13              9.9999999999999994e-12       
                       4.1331686397277016e-18                            99                                           1631.2682976582732                   -6.4840689299653015e-10                 -4.2270240184081281e-22              1.1732362853442105e-19             6.8006770604898135                     7.7145562142288613                       8.3844207164270532             5.6390708658618819e-19         3.4519379246070927e-18           18                            4                           2                     0.96081283376976245  0.14490144496535945 -0.018424561382529858        6.567924817672701e-13              1.5e-11                   
                       4.1297792633620264e-18                            124                                          1682.5586646136326                   -7.4727356989237194e-10                 -4.4061393846694722e-22              1.1839976393388037e-19             6.8914607750278334                     7.5926153261829841                       8.3844207164270532             5.8824174988022046e-19         3.4231377495479257e-18           23                            4                           3                     0.95574412734062686  0.16055516331517816 -0.02423461667727923        5.9528941399495351e-13              1.9999999999999999e-11       
                       4.125809155532059e-18                            149                                          1699.5015631323624                   -8.8086655293524659e-10                 -4.3056826401654698e-22              1.2159560771764709e-19             6.8948508628096832                     7.3831780951638848                       8.3844207164270532             6.190924332620675e-19         3.3851211145523447e-18           28                            4                           4                     0.94886455870865838  0.18013815051458856 -0.029844700118893116        4.9258145202405435e-13              2.4999999999999998e-11       
                       4.1210753730520789e-18                            174                                          1632.9117760402171                   -1.0438372371438337e-09                 -7.0570323033295923e-22              1.2967863697230447e-19             6.9150373970652197                     6.9722186570052909                       8.3844207164270532             6.5408296733402899e-19         3.3373137687457454e-18           33                            4                           5                     0.93995431906021987  0.20328320710969053 -0.035211624049693253        6.8396898695185934e-13              3e-11                     
                       4.1154514557346996e-18                            199                                          1593.6628220741081                   -1.2341029926132623e-09                 -7.4130238566346569e-22              1.3987737818579935e-19             5.8897635017467334                     6.9150373970652197                       8.3844207164270532             6.9651098677922802e-19         3.2790630907696723e-18           38                            4                           6                     0.92877192085911608  0.22962061581354071 -0.040287968850766305        6.0683982457154606e-13              3.5000000000000002e-11       
                       4.1088358355230708e-18                            224                                          1569.5833285830072                   -1.4381507342810478e-09                 -7.2798798648858011e-22              1.5094185405077342e-19             5.936902321615932                      6.1208891074986651                       8.3844207164270532             7.4805525667399406e-19         3.2098387247983038e-18           43                            4                           7                     0.91510053275391945  0.25873215668668448 -0.045035771431879659        5.098387804132978e-13              4.0000000000000004e-11       
                       4.1011818844592869e-18                            249                                          1509.8756943710664                   -1.647644264054436e-09                 -7.1675649746743641e-22              1.6330879742690084e-19             5.8416057789648699                     5.936902321615932                        8.3844207164270532             8.08555943683016e-19         3.1293171433493702e-18           48                            4                           8                     0.89877202558495772  0.29015756753234989 -0.049426010852581533        4.3746755002109831e-13              4.5000000000000006e-11       
                       4.0924891154778731e-18                            268                                          1668.0098043066425                   -1.8598642066185907e-09                 -3.0598582050385383e-21              1.7614824776394773e-19             5.3787916660831181                     5.9794005934167478                       8.3844207164270532             8.7899368021863223e-19         3.0373471874952934e-18           52                            3                           9                     0.87966348068161493  0.323427994138133   -0.053444138389913458        1.6918469914104701e-12              5.0000000000000008e-11       
                       4.0827354019301714e-18                            287                                          1577.2149074631616                   -2.0681037811822204e-09                 -3.049160353894017e-21              1.8842058700103715e-19             5.7135121934661166                     5.9297047602535669                       8.3844207164270532             9.6039443437538361e-19         2.9339203805537508e-18           56                            3                           10                    0.85769073574513466  0.35807509200776966 -0.057101883627751336        1.5022880474911242e-12              5.500000000000001e-11       
                       4.0719529508197898e-18                            306                                          1575.0133873619709                   -2.2687594182226013e-09                 -3.1897221742195122e-21              2.0052340595154032e-19             5.6710272591645845                     5.7135121934661166                       8.3844207164270532             1.0522538208964102e-18         2.8191757239718386e-18           60                            3                           11                    0.83281033375814395  0.39363474045721142 -0.060439670192848308        1.4269710820723665e-12              6.0000000000000013e-11       
                       4.0601818409546457e-18                            325                                          1547.1688204848267                   -2.4614446824137282e-09                 -3.3754281177989713e-21              2.1276319068101029e-19             5.9849916775956951                     5.9906867739532794                       8.3844207164270532             1.1540996787655906e-18         2.6933189715080444e-18           64                            3                           12                    0.80500176149332059  0.42967058666898189 -0.063507032682042414        1.3884684520748702e-12              6.5000000000000008e-11       
                       4.0474566196289558e-18                            344                                          1613.049405000266                    -2.6497969703609511e-09                 -3.4290440926485805e-21              2.2520842392983279e-19             6.0509167905957399                     6.0765049339584261                       8.3844207164270532             1.2656897528823971e-18         2.5565584428167254e-18           68                            3                           13                    0.77425133963978154  0.46578139605153551 -0.066367228096976219        1.3074328951233509e-12              7.0000000000000004e-11       
                       4.0337833143205552e-18                            363                                          1699.2568663510388                   -2.8382433401737963e-09                 -3.8133664353573686e-21              2.3784553851808469e-19             6.3777276051471707                     6.3777276051471707                       8.3844207164270532             1.3868713624089736e-18         2.4090664133934972e-18           72                            3                           14                    0.74054096353918808  0.50159649932600592 -0.069098770483043387        1.3572206753305384e-12              7.5e-11                   
                       4.0191527482318689e-18                            382                                          1605.4822891411925                   -3.0332684017828506e-09                 -3.8216363107272188e-21              2.5065952649954401e-19             6.5336824631629566                     6.5336824631629566                       8.3844207164270532             1.5175654532665736e-18         2.2509277684657512e-18           76                            3                           15                    0.70383273500357446  0.53676747859937035 -0.071790338281035787        1.2713214594487726e-12              7.9999999999999995e-11       
                       4.00351006573263e-18                            401                                          1691.4239554678857                   -3.243112378434065e-09                 -3.8710943359155557e-21              2.6374117523767685e-19             6.7969718607947662                     6.81411134597196                         8.3844207164270532             1.6576732562130577e-18         2.082095634281896e-18           80                            3                           16                    0.66405452930302866  0.5709543858068663  -0.074540497255752527        1.2038027644849654e-12              8.4999999999999991e-11       
                       3.98675651602107e-18                            420                                          1782.5766497383825                   -3.4784475625393477e-09                 -4.050239469390778e-21              2.7724389051833596e-19             7.0376224158327805                     7.0376224158327805                       8.3844207164270532             1.8071439269995093e-18         1.902368698503225e-18           84                            3                           17                    0.62109058262652883  0.60380705641521604 -0.077459032120988328        1.1745733956303512e-12              8.9999999999999986e-11       
                       3.9687380255061074e-18                            439                                          1949.8553382582406                   -3.750475260243448e-09                 -4.0721149503697049e-21              2.9164357104272349e-19             7.2211852675270345                     7.378511268811252                        8.3844207164270532             1.9657129157012522e-18         1.7113815387621316e-18           88                            3                           18                    0.57477473270840063  0.63494143400158265 -0.080664317260027568        1.0952597366889827e-12              9.4999999999999982e-11       
                       3.9492286381358674e-18                            458                                          2022.7664424406482                   -4.0761951321264788e-09                 -4.2872504809512811e-21              3.0748220792898529e-19             7.7463209604103724                     7.7463209604103724                       8.3844207164270532             2.1331100459739592e-18         1.5086363842329228e-18           92                            3                           19                    0.52489412879132125  0.66391155194761819 -0.084278723515129481        1.0616175104785312e-12              9.9999999999999978e-11       
                       3.927921188251246e-18                            477                                          2314.2810886962038                   -4.4722133623288843e-09                 -4.5139257044549668e-21              3.2577693697745353e-19             8.0817163215204104                     8.0817163215204104                       8.3844207164270532             2.3085783310884804e-18         1.2935659201853122e-18           96                            3                           20                    0.47120062618602465  0.69017734951982113 -0.088422070700460542        1.0194296741677101e-12              1.0499999999999997e-10       
                       3.9044117008647776e-18                            496                                          2479.1115502227785                   -4.9592716339511473e-09                 -4.7434868730784878e-21              3.4774712592311103e-19             8.680029150009311                      8.680029150009311                        8.680029150009311              2.4910018377028684e-18         1.0656627372387985e-18           100                           3                           21                    0.41344038852918213  0.71307332780321364 -0.093199516865059048        9.6652559535870554e-13              1.0999999999999997e-10       
                       3.8781996367008143e-18                            515                                          2734.243576215978                    -5.5544070947047044e-09                 -5.3643900991230801e-21              3.7501864599026941e-19             9.0401486520473764                     9.0401486520473764                       9.0401486520473764             2.6785111806086481e-18         8.2466981010189668e-19           104                           3                           22                    0.35140181610067178  0.7317874283857202  -0.098681499817578414        9.7690549658784277e-13              1.1499999999999996e-10       
                       3.8487155163075849e-18                            534                                          2984.8344835820903                   -6.2684446601290778e-09                 -5.7398847466687431e-21              4.0901362455568121e-19             9.6036033086003858                     9.7012421029443647                       9.7012421029443647             2.8688572530130402e-18         5.7084463873886359e-19           108                           3                           23                    0.2849883843109014   0.74536821607379433 -0.10487743364009657        9.261787535007694e-13              1.1999999999999997e-10       
                       3.8153662478461906e-18                            553                                          3109.5201015852799                   -7.0970504489869669e-09                 -6.3265972767301718e-21              4.5061611263914864e-19             10.579364613791135                     10.579364613791135                       10.579364613791135             3.0595292774397687e-18         3.0522085776727299e-19           112                           3                           24                    0.2142990809326849   0.75277945871876695 -0.11171107055596233        9.0144557926432672e-13              1.2499999999999998e-10       
                       3.7776295852430407e-18                            572                                          3501.6098725850561                   -8.018557237557699e-09                 -6.8525689183138231e-21              4.9953075362971574e-19             11.002386418653497                     11.015006493586096                       11.015006493586096             3.2483344992697324e-18         2.9764332343592134e-20           116                           3                           25                    0.1396899031967179   0.75300993868467081 -0.11901096808855824        8.6346331233125549e-13              1.2999999999999999e-10       
                       3.7351170816397378e-18                            591                                          3703.2212123140985                   -8.9965711765393546e-09                 -1.0761116473124312e-20              5.5421416281867352e-19             11.634928746194863                     11.634928746194863                       11.634928746194863             3.4335995109426947e-18        -2.5269659212163022e-19           120                           3                           26                    0.061779347001116806  0.74521299620948567 -0.12652990642749046        1.2123579612613034e-12              1.35e-10                  
                       3.6876536322686982e-18                            610                                          3958.7921971305891                   -9.9939638933019365e-09                 -1.2394025170876375e-20              6.1207249810555944e-19             12.63690928036605                      12.63690928036605                        12.63690928036605              3.6143456535868551e-18        -5.3876451942371644e-19           124                           3                           27                   -0.01861051374932093  0.72882437781108622 -0.13398866199409781        1.2559854552002236e-12              1.4000000000000001e-10       
                       3.6351868073527605e-18                            629                                          4126.1193087098372                   -1.0996557189481246e-08                 -1.3752100035630813e-20              6.6923635101547673e-19             13.257394348165207                     13.257394348165207                       13.257394348165207             3.790813714122954e-18        -8.2486325778567038e-19           128                           3                           28                   -0.10055276064048815  0.70360243569266168 -0.1411287877932621         1.2652295405822927e-12              1.4500000000000002e-10       
                       3.577698188586014e-18                            648                                          4258.7398895472234                   -1.2002887958564621e-08                 -1.5329514440347065e-20              7.2248285094025015e-19             13.843864654974883                     13.843864654974883                       13.843864654974883             3.9627624828575202e-18        -1.1075471452117561e-18           132                           3                           29                   -0.18310891424360781  0.66957403356963352 -0.1477453704131021         1.2912222672485037e-12              1.5000000000000002e-10       
                       3.5151328271971752e-18                            667                                          4384.6945375739824                   -1.3032209147404971e-08                 -1.6626921568891508e-20              7.6870299280172896e-19             14.217283456106291                     14.217283456106291                       14.217283456106291             4.129901780009168e-18        -1.3834719456137219e-18           136                           3                           30                   -0.26533741058326499  0.62694093110252502 -0.15369167373467235        1.2892149354618439e-12              1.5500000000000003e-10       
                       3.4473009303736409e-18                            686                                          4594.6354512893213                   -1.4112207296641222e-08                 -1.8140227780828326e-20              8.0530161708482779e-19             14.48781780059069                      14.48781780059069                        14.48781780059069              4.2911244450586419e-18        -1.649125131769829e-18           140                           3                           31                   -0.34623543953072816  0.57599435643595021 -0.15886396326963462        1.2986399204586861e-12              1.6000000000000004e-10       
                       3.3739375944065552e-18                            705                                          4677.0611598750484                   -1.5239678669928452e-08                 -1.9672652043796973e-20              8.3278043387749191e-19             15.122086104724113                     15.122086104724113                       15.122086104724113             4.4416907697859445e-18        -1.9005336092568812e-18           144                           3                           32                   -0.42466522094142323  0.51708363408196178 -0.16316556969924237        1.3035742649945379e-12              1.6500000000000005e-10       
                       3.2949274696666567e-18                            724                                          4857.0621567540493                   -1.6356627799588407e-08                 -2.1155172565644841e-20              8.5563934623861185e-19             14.727167624583053                     15.122086104724113                       15.122086104724113             4.5725264643703911e-18        -2.1332383409423463e-18           148                           3                           33                   -0.49933549701570845  0.45068272396018011 -0.16646499531660697        1.3047221094158839e-12              1.7000000000000006e-10       
                       3.2105573595458223e-18                            743                                          4794.2565239806181                   -1.7366803631639426e-08                 -2.263943356400997e-20              8.8014618942073082e-19             14.862462685337313                     14.963159091696914                       15.122086104724113             4.6733430316836501e-18        -2.3429318615585587e-18           152                           3                           34                   -0.56895543659542192  0.37749814034338092 -0.16857725047481931        1.312971932956438e-12              1.7500000000000007e-10       
                       3.12156982536394e-18                            762                                          4933.183477590761                    -1.8197740789722038e-08                 -2.3722204236604527e-20              9.0980290376108042e-19             14.504520474913669                     14.895359449758608                       15.122086104724113             4.7382314462394475e-18        -2.5264645246365879e-18           156                           3                           35                   -0.63251009474509912  0.29845313957721975 -0.16928993457016414        1.310704525320832e-12              1.8000000000000008e-10       
                       3.0288701861310528e-18                            781                                          4882.3966312956118                   -1.8859480595660241e-08                 -2.4576464736474094e-20              9.4217508621430053e-19             14.488011014902243                     14.551154937768635                       15.122086104724113             4.7688777443549882e-18        -2.6821826444382357e-18           160                           3                           36                   -0.68938579980374093  0.21449464056226616 -0.16839906355219267        1.3086507104766868e-12              1.8500000000000008e-10       
                       2.933160153978162e-18                            800                                          4997.1073639431297                   -1.9412462504298651e-08                 -2.5210487057065822e-20              9.7081479911719012e-19             14.220104990830301                     14.488011014902243                       15.122086104724113             4.7714945758077788e-18        -2.8091492209468069e-18           164                           3                           37                   -0.7391838268088311   0.12645100778690924 -0.16570432940762209        1.3032594009353441e-12              1.9000000000000009e-10       
                       2.8348475753040408e-18                            819                                          5022.5632053004574                   -1.9904961732928837e-08                 -2.6116779791173168e-20              9.8764822239427888e-19             14.003739589978442                     14.225096798289906                       15.122086104724113             4.7531551466352876e-18        -2.9059557937255256e-18           168                           3                           38                   -0.78137901863844761  0.03514296891487044 -0.16097232480989818        1.316182241667074e-12              1.950000000000001e-10       
                       2.7342235979437179e-18                            838                                          5342.3571619130553                   -2.0329949430092723e-08                 -2.6759363446036638e-20              9.8671297630442698e-19             13.502848316380707                     14.003739589978442                       15.122086104724113             4.7175559405270862e-18        -2.9700453188877953e-18           172                           3                           39                   -0.81507568033837441 -0.058269676837652599 -0.15392344279878245        1.3195483626537161e-12              2.0000000000000011e-10       