# ODT 1.0
# Table Start
# Title: mmArchive Data Table, Thu Jan 24 15:26:04 CET 2019
# Columns: {Oxs_CGEvolve::Max mxHxm} {Oxs_CGEvolve::Total energy} {Oxs_CGEvolve::Delta E} {Oxs_CGEvolve::Bracket count} {Oxs_CGEvolve::Line min count} {Oxs_CGEvolve::Conjugate cycle count} {Oxs_CGEvolve::Cycle count} {Oxs_CGEvolve::Cycle sub count} {Oxs_CGEvolve::Energy calc count} Oxs_UniformExchange::Energy {Oxs_UniformExchange::Max Spin Ang} {Oxs_UniformExchange::Stage Max Spin Ang} {Oxs_UniformExchange::Run Max Spin Ang} Oxs_FixedZeeman::Energy Oxs_MinDriver::Iteration {Oxs_MinDriver::Stage iteration} Oxs_MinDriver::Stage Oxs_MinDriver::mx    Oxs_MinDriver::my    Oxs_MinDriver::mz   
# Units:              A/m                         J                          J                         {}                             {}                                {}                               {}                            {}                               {}                              J                              deg                                    deg                                      deg                              J                       {}                           {}                         {}                 {}                   {}                   {}           
              1.7279090520561927e-05        -2.7680904998347535e-17      -4.5730451564936716e-27        12                             3                                 8                                8                             0                                16                             0                               0                                      0                                        0                              -2.7680904998347538e-17      13                           13                         0                    0.98058067568797136  7.8136600236014675e-12  0.19611613515292628
# Table End
