# ODT 1.0
# Table Start
# Title: mmArchive Data Table, Wed Sep 15 09:54:25 CEST 2021
# Columns: {Oxs_RungeKuttaEvolve:evolver:Total energy} {Oxs_RungeKuttaEvolve:evolver:Energy calc count} {Oxs_RungeKuttaEvolve:evolver:Max dm/dt} Oxs_RungeKuttaEvolve:evolver:dE/dt {Oxs_RungeKuttaEvolve:evolver:Delta E} Oxs_FixedZeeman:zeeman:Energy Oxs_TimeDriver::Iteration {Oxs_TimeDriver::Stage iteration} Oxs_TimeDriver::Stage Oxs_TimeDriver::mx   Oxs_TimeDriver::my   Oxs_TimeDriver::mz   {Oxs_TimeDriver::Last time step} {Oxs_TimeDriver::Simulation time}
# Units:                        J                                             {}                                         deg/ns                                 J/s                                   J                                  J                          {}                            {}                          {}                   {}                   {}                   {}                          s                                 s                
                      -4.4007616478200001e-22                            37                                           25204.415522200001                   -8.7987120542e-10                    -3.26961235137e-22                -4.4007616478200001e-22         6                             6                           0                     0.975900701403       0.21711461093600001  0.0218875928006            3.7150172413700002e-13              4.9999999999999999e-13       
                      -8.7973085856500001e-22                            44                                           25186.311578100001                   -8.7860766346499997e-10                 -4.39654693783e-22                -8.7973085856500001e-22         8                             1                           1                     0.90480995875500003  0.423561691465       0.043754223353399999        4.9999999999999999e-13              9.9999999999999998e-13       
                      -1.3185442541200001e-21                            51                                           25156.186454899998                   -8.7650713080899995e-10                 -4.38813395551e-22                -1.3185442541200001e-21         10                            1                           2                     0.79028640210000001  0.609218184193       0.065579011165000006        4.9999999999999999e-13              1.5000000000000001e-12       
                      -1.7560997273700002e-21                            58                                           25114.112032100002                   -8.7357761751100004e-10                 -4.3755547325299996e-22              -1.7560997273700002e-21         12                            1                           3                     0.63805503951599996  0.76502109461599999  0.087341235054100005        4.9999999999999999e-13              2e-12                     
                      -2.1919854408099999e-21                            65                                           25060.188355400001                   -8.6983024673700002e-10                 -4.3588571344600001e-22              -2.1919854408099999e-21         14                            1                           4                     0.45570992457999998  0.88342685856100001  0.10902041190300001        4.9999999999999999e-13              2.4999999999999998e-12       
                      -2.6257958787100001e-21                            72                                           24994.5430581                        -8.6527916538799996e-10                 -4.3381043790000003e-22              -2.6257958787100001e-21         16                            1                           5                     0.25232066718099999  0.95879031506800005  0.13059637301499999        4.9999999999999999e-13              3.0000000000000001e-12       
                      -3.0571333317099999e-21                            79                                           24917.330628899999                   -8.5994143131199995e-10                 -4.3133745300000002e-22              -3.0571333317099999e-21         18                            1                           6                     0.037964008957000001  0.98764352519200005  0.15204933794799999        4.9999999999999999e-13              3.5e-12                   
                      -3.4856093195299998e-21                            86                                           24828.731532400001                   -8.5383687864699999e-10                 -4.2847598781899998e-22              -3.4856093195299998e-21         20                            1                           7                    -0.17679436917399999  0.968860189363       0.17335998527800001        4.9999999999999999e-13              3.9999999999999999e-12       
                      -3.9108459412200004e-21                            93                                           24728.951193000001                   -8.4698796308999997e-10                 -4.2523662168499997e-22              -3.9108459412200004e-21         22                            1                           8                    -0.38144010608599999  0.90369767743100005  0.194509519755             4.9999999999999999e-13              4.4999999999999998e-12       
                      -4.3324771434400002e-21                            100                                          24618.218850599998                   -8.3941958913999998e-10                 -4.2163120222099998e-22              -4.3324771434400002e-21         24                            1                           9                    -0.56604379581099995  0.79571534160500001  0.215479735378             4.9999999999999999e-13              4.9999999999999997e-12       
                      -4.7501498983700001e-21                            107                                          24496.786302500001                   -8.3115892156100004e-10                 -4.1767275492599999e-22              -4.7501498983700001e-21         26                            1                           10                   -0.72175990716399996  0.65057445495800004  0.23625307398500001        4.9999999999999999e-13              5.5000000000000004e-12       
                      -5.1635252838199996e-21                            114                                          24364.926541199999                   -8.2223518345799999e-10                 -4.1337538545499998e-22              -5.1635252838199996e-21         28                            1                           11                   -0.84126503130499997  0.47573143161199999  0.25681267896900001        4.9999999999999999e-13              6.0000000000000003e-12       
                      -5.5722794596499996e-21                            121                                          24222.9323038                        -8.1267944346300003e-10                 -4.0875417582899998e-22              -5.5722794596499996e-21         30                            1                           12                   -0.91911303668900002  0.28004158907100002  0.27714244384100001        4.9999999999999999e-13              6.5000000000000002e-12       
                      -5.9761045354899997e-21                            128                                          24071.1145454                        -8.0252439460399997e-10                 -4.0382507584300002e-22              -5.9761045354899997e-21         32                            1                           13                   -0.95198943061899999  0.073295303612600005  0.29722705539299998        4.9999999999999999e-13              7.0000000000000001e-12       
                      -6.3747093264500004e-21                            135                                          23909.800851700002                   -7.9180412744100003e-10                 -3.9860479095699998e-22              -6.3747093264500004e-21         34                            1                           14                   -0.93885284991999995 -0.13428825585599999  0.31705203127499998        4.9999999999999999e-13              7.5e-12                   
                      -6.7678199944100001e-21                            142                                          23739.333803699999                   -7.8055390001399999e-10                 -3.9311066796200001e-22              -6.7678199944100001e-21         36                            1                           15                   -0.88095780254199996 -0.33258271805700002  0.336603751896             4.9999999999999999e-13              7.9999999999999998e-12       
                      -7.1551805740899997e-21                            149                                          23560.069310899999                   -7.6880990709699999e-10                 -3.8736057968000001e-22              -7.1551805740899997e-21         38                            1                           16                   -0.781759202815      -0.51206391918399996  0.35586948658799999        4.9999999999999999e-13              8.4999999999999997e-12       
                      -7.5365533840100002e-21                            156                                          23372.374924700001                   -7.5660905114e-10                    -3.81372809916e-22                -7.5365533840100002e-21         40                            1                           17                   -0.64670552542899995 -0.66428072109000003  0.37483741404400001        4.9999999999999999e-13              8.9999999999999996e-12       
                      -7.9117193238299995e-21                            163                                          23176.628147399999                   -7.4398871714999999e-10                 -3.7516593982200001e-22              -7.9117193238299995e-21         42                            1                           18                   -0.48293320202700002 -0.78226333096099998  0.393496637107             4.9999999999999999e-13              9.4999999999999995e-12       
                      -8.2804780605799995e-21                            170                                          22973.214749300001                   -7.3098655356900001e-10                 -3.6875873675500002e-22              -8.2804780605799995e-21         44                            1                           19                   -0.29887988958599998 -0.86084896402300004  0.41183719203300001        4.9999999999999999e-13              9.9999999999999994e-12       
                      -8.6426481071999994e-21                            177                                          22762.5271049                        -7.1764026105800002e-10                 -3.6217004661900002e-22              -8.6426481071999994e-21         46                            1                           20                   -0.103838193196      -0.89690945032900005  0.42985005239500002        4.9999999999999999e-13              1.0499999999999999e-11       
                      -8.9980667977800005e-21                            184                                          22544.962562299999                   -7.03987390849e-10                   -3.5541869058e-22                 -8.9980667977800005e-21         48                            1                           21                    0.092525865641199995 -0.88947087305899997  0.44752712785600002        4.9999999999999999e-13              1.1000000000000001e-11       
                      -9.3465901647299996e-21                            191                                          22320.921854                         -6.9006515413100003e-10                 -3.4852336695000002e-22              -9.3465901647299996e-21         50                            1                           22                    0.28066399894799998 -0.83972122186800002  0.46486125805400003        4.9999999999999999e-13              1.1500000000000001e-11       
                      -9.6880927236200004e-21                            198                                          22090.807559699999                   -6.7591024368599997e-10                 -3.4150255889099999e-22              -9.6880927236200004e-21         52                            1                           23                    0.45162084211600001 -0.75090801878500002  0.48184620190499999        4.9999999999999999e-13              1.2000000000000001e-11       
                      -1.00224671721e-20                              205                                          21855.022629200001                   -6.6155866878799998e-10                 -3.3437444851399999e-22              -1.00224671721e-20           54                            1                           24                    0.59746902684900005 -0.62813359936000002  0.49847662263199999        4.9999999999999999e-13              1.25e-11                  
                      -1.0349624009900001e-20                            212                                          21613.968973700001                   -6.4704560410400005e-10                 -3.2715683780399998e-22              -1.0349624009900001e-20         56                            1                           25                    0.71168265204100001 -0.47806090448600003  0.51474806885199997        4.9999999999999999e-13              1.3e-11                   
                      -1.06694910866e-20                              219                                          21368.046130399998                   -6.3240525315800004e-10                 -3.1986707669100002e-22              -1.06694910866e-20           58                            1                           26                    0.78943141016600005 -0.30854699452899997  0.53065695209800001        4.9999999999999999e-13              1.35e-11                  
                      -1.09820130851e-20                              226                                          21117.650006799999                   -6.1767072667700004e-10                 -3.1252199849200002e-22              -1.09820130851e-20           60                            1                           27                    0.82778220853399997 -0.12822482582799999  0.54620052112399997        4.9999999999999999e-13              1.4e-11                   
                      -1.1287150948000001e-20                            233                                          20863.171707500002                   -6.0287393592899999e-10                 -3.0513786283500001e-22              -1.1287150948000001e-20         62                            1                           28                    0.82580027480200002  0.053944018112899998  0.56137683337300004        4.9999999999999999e-13              1.45e-11                  
                      -1.1584881253999999e-20                            240                                          20604.996448800001                   -5.8804550100900004e-10                 -2.9773030606799998e-22              -1.1584881253999999e-20         64                            1                           29                    0.78454716190399998  0.229122051775       0.57618472397200005        4.9999999999999999e-13              1.5e-11                   
                      -1.18751955531e-20                              247                                          20343.502560000001                   -5.7321467382000005e-10                 -2.9031429909200002e-22              -1.18751955531e-20           66                            1                           30                    0.70697847096400002  0.38903084810999999  0.59062377264400001        4.9999999999999999e-13              1.5500000000000001e-11       
                      -1.21580996656e-20                              254                                          20079.060575300002                   -5.5840927537600003e-10                 -2.8290411244600001e-22              -1.21580996656e-20           68                            1                           31                    0.59774920549300004  0.52634658593999994  0.60469426886800004        4.9999999999999999e-13              1.6e-11                   
                      -1.2433612954e-20                               261                                          19812.032415000001                   -5.4365564689100002e-10                 -2.7551328843699999e-22              -1.2433612954e-20            70                            1                           32                    0.462939196251       0.63503719080599996  0.61839717566300001        4.9999999999999999e-13              1.6500000000000001e-11       
                      -1.2701767574000001e-20                            268                                          19542.770655799999                   -5.2897861405000002e-10                 -2.6815461999900001e-22              -1.2701767574000001e-20         72                            1                           33                    0.30971477349600002  0.71062563680599999  0.631734092315             4.9999999999999999e-13              1.6999999999999999e-11       
                      -1.296260771e-20                                275                                          19271.617889000001                   -5.1440146370699998e-10                 -2.6084013597699999e-22              -1.296260771e-20             74                            1                           34                    0.14594564187        0.75036822612099996  0.64470721637600004        4.9999999999999999e-13              1.7500000000000001e-11       
                      -1.32161888024e-20                              282                                          18998.906163799998                   -4.9994593223500002e-10                 -2.53581092417e-22                -1.32161888024e-20           76                            1                           35                   -0.020202379825300001  0.75334135345200004  0.65731930523000004        4.9999999999999999e-13              1.7999999999999999e-11       
                      -1.34625767719e-20                              289                                          18724.9565148                        -4.8563220466300001e-10                 -2.4638796947400001e-22              -1.34625767719e-20           78                            1                           36                   -0.18067750808300001  0.72043513381799995  0.66957363749900001        4.9999999999999999e-13              1.8500000000000001e-11       
                      -1.37018472454e-20                              296                                          18450.0785688                        -4.7147892371500002e-10                 -2.3927047349999999e-22              -1.37018472454e-20           80                            1                           37                   -0.32793431766100001  0.654257063621       0.68147397456000003        4.9999999999999999e-13              1.8999999999999999e-11       
                      -1.3934084789199999e-20                            303                                          18174.570228199998                   -4.57503207822e-10                   -2.3223754384000001e-22              -1.3934084789199999e-20         82                            1                           38                   -0.45528909863200001  0.55895335049200001  0.69302452239500001        4.9999999999999999e-13              1.9500000000000001e-11       
                      -1.41593821531e-20                              310                                          17898.717427799998                   -4.4372067721100001e-10                 -2.2529736389599999e-22              -1.41593821531e-20           84                            1                           39                   -0.55722161055300001  0.43995946760100002  0.70422989399799996        4.9999999999999999e-13              1.9999999999999999e-11       
                      -1.43778395291e-20                              317                                          17622.793959800001                   -4.30145487124e-10                   -2.18457375996e-22                -1.43778395291e-20           86                            1                           40                   -0.62960986191599999  0.30369468063600003  0.715095072512             4.9999999999999999e-13              2.05e-11                  
                      -1.4589563828699999e-20                            324                                          17347.061363500001                   -4.16790367286e-10                   -2.11724299599e-22                -1.4589563828699999e-20         88                            1                           41                   -0.66988837406299995  0.15721762320400001  0.72562537527899995        4.9999999999999999e-13              2.0999999999999999e-11       
                      -1.47946679811e-20                              331                                          17071.768874599999                   -4.0366666674100001e-10                 -2.05104152409e-22                -1.47946679811e-20           90                            1                           42                   -0.67712456757999995  0.0078613722707799993  0.73582641893699996        4.9999999999999999e-13              2.15e-11                  
                      -1.4993270255100001e-20                            338                                          16797.153430499999                   -3.9078440321000002e-10                 -1.9860227395499999e-22              -1.4993270255100001e-20         92                            1                           43                   -0.65201220843399998 -0.13713313472399999  0.74570408569000002        4.9999999999999999e-13              2.2000000000000002e-11       
                      -1.51854936063e-20                              345                                          16523.439726600001                   -3.7815231617900002e-10                 -1.9222335124e-22                 -1.51854936063e-20           94                            1                           44                   -0.59678504668800003 -0.27096707715899998  0.75526449085400005        4.9999999999999999e-13              2.25e-11                  
                      -1.5371465052399999e-20                            352                                          16250.840318500001                   -3.6577792295899999e-10                 -1.85971446055e-22                -1.5371465052399999e-20         96                            1                           45                   -0.51505766281800003 -0.38760033736999999  0.76451395176500003        4.9999999999999999e-13              2.3000000000000001e-11       
                      -1.5551315076000001e-20                            359                                          15979.555767100001                   -3.53667577014e-10                   -1.7985002360500001e-22              -1.5551315076000001e-20         98                            1                           46                   -0.41160392058       -0.48202017872500003  0.77345895809999998        4.9999999999999999e-13              2.35e-11                  
                      -1.5725177058100001e-20                            366                                          15709.774820799999                   -3.41826527903e-10                   -1.73861982102e-22                -1.5725177058100001e-20         100                           1                           47                   -0.29208615932100002 -0.550450411523       0.78210614368300002        4.9999999999999999e-13              2.4000000000000001e-11       
                      -1.58931867411e-20                              373                                          15441.674632                         -3.30258982246e-10                   -1.68009683018e-22                -1.58931867411e-20           102                           1                           48                   -0.16275023022900001 -0.59049282672100001  0.79046225978899998        4.9999999999999999e-13              2.4499999999999999e-11       
                      -1.60554817228e-20                              380                                          15175.4210021                        -3.1896816516199999e-10                 -1.62294981706e-22                -1.60554817228e-20           104                           1                           49                   -0.030102621450199998 -0.601196343563       0.79853414997000005        4.9999999999999999e-13              2.5000000000000001e-11       
                      -1.6212200980900001e-20                            387                                          14911.168653299999                   -3.0795638170099999e-10                 -1.56719258136e-22                -1.6212200980900001e-20         106                           1                           50                    0.0994137976609     -0.58305306945400004  0.80632872641099995        4.9999999999999999e-13              2.5499999999999999e-11       
                      -1.63634844284e-20                              394                                          14649.061521600001                   -2.9722507782399999e-10                 -1.5128344751699999e-22              -1.63634844284e-20           108                           1                           51                    0.21972943235600001 -0.53792411722900002  0.81385294781100004        4.9999999999999999e-13              2.6000000000000001e-11       
                      -1.6509472499e-20                               401                                          14389.233069                         -2.8677490055999998e-10                 -1.45988070595e-22                -1.6509472499e-20            110                           1                           52                    0.32542836040500001 -0.46890138804999998  0.82111379876900004        4.9999999999999999e-13              2.6499999999999999e-11       
                      -1.6650305762500001e-20                            408                                          14131.8066103                        -2.7660575699499999e-10                 -1.40833263451e-22                -1.6650305762500001e-20         112                           1                           53                    0.41198681268300003 -0.38011445116499998  0.82811827065400001        4.9999999999999999e-13              2.7e-11                   
                      -1.67861245691e-20                              415                                          13876.8956533                        -2.6671687182000001e-10                 -1.3581880665200001e-22              -1.67861245691e-20           114                           1                           54                    0.47595962398199998 -0.276494007087       0.83487334391699997        4.9999999999999999e-13              2.7499999999999999e-11       
                      -1.69170687227e-20                              422                                          13624.6042469                        -2.5710684318600001e-10                 -1.3094415360199999e-22              -1.69170687227e-20           116                           1                           55                    0.51510748771500003 -0.16350511463100001  0.84138597182800001        4.9999999999999999e-13              2.8e-11                   
                      -1.7043277180800001e-20                            429                                          13375.027337899999                   -2.4777369667200001e-10                 -1.2620845801400001e-22              -1.7043277180800001e-20         118                           1                           56                    0.52846103082899998 -0.046864337988599999  0.84766306556299997        4.9999999999999999e-13              2.8499999999999999e-11       
                      -1.7164887781099999e-20                            436                                          13128.251130799999                   -2.3871493720500001e-10                 -1.21610600382e-22                -1.7164887781099999e-20         120                           1                           57                    0.516320976865       0.067744790986199996  0.853711480621             4.9999999999999999e-13              2.9e-11                   
                      -1.7282036994500001e-20                            443                                          12884.3534513                        -2.29927598806e-10                   -1.1714921340399999e-22              -1.7282036994500001e-20         122                           1                           58                    0.480196822207       0.174944078989       0.859538004493             4.9999999999999999e-13              2.9500000000000002e-11       
                      -1.7394859700799999e-20                            450                                          12643.404108999999                   -2.21408292066e-10                   -1.12822706292e-22                -1.7394859700799999e-20         124                           1                           59                    0.42268936118400002  0.26990797288399998  0.86514934555599998        4.9999999999999999e-13              3e-11                     
                      -1.75034889888e-20                              457                                          12405.4652599                        -2.1315324928899999e-10                 -1.0862928792700001e-22              -1.75034889888e-20           126                           1                           60                    0.34732492685999999  0.34857480710700001  0.87055212309899999        4.9999999999999999e-13              3.0499999999999998e-11       