# ODT 1.0
# Table Start
# Title: mmArchive Data Table, Sat Mar 07 19:11:14 UTC 2020
# Columns: {Oxs_CGEvolve:evolver:Max mxHxm} {Oxs_CGEvolve:evolver:Total energy} {Oxs_CGEvolve:evolver:Delta E} {Oxs_CGEvolve:evolver:Bracket count} {Oxs_CGEvolve:evolver:Line min count} {Oxs_CGEvolve:evolver:Conjugate cycle count} {Oxs_CGEvolve:evolver:Cycle count} {Oxs_CGEvolve:evolver:Cycle sub count} {Oxs_CGEvolve:evolver:Energy calc count} YY_FixedMEL::Energy  Oxs_MinDriver::Iteration {Oxs_MinDriver::Stage iteration} Oxs_MinDriver::Stage Oxs_MinDriver::mx    Oxs_MinDriver::my    Oxs_MinDriver::mz   
# Units:                 A/m                                 J                                J                                 {}                                   {}                                        {}                                      {}                                   {}                                      {}                             J                      {}                           {}                         {}                 {}                   {}                   {}           
                  0                                 1.1200000000000001e-19               1.1200000000000001e-19               0                                    0                                         1                                       1                                    0                                       1                              1.1200000000000001e-19    0                            0                          0                    0                    0.28734788556599999  0.957826285221     
# Table End
