# ODT 1.0
# Table Start
# Title: mmArchive Data Table, Thu Dec 31 19:14:38 GMT 2020
# Columns: {Oxs_CGEvolve:evolver:Max mxHxm} {Oxs_CGEvolve:evolver:Total energy} {Oxs_CGEvolve:evolver:Delta E} {Oxs_CGEvolve:evolver:Bracket count} {Oxs_CGEvolve:evolver:Line min count} {Oxs_CGEvolve:evolver:Conjugate cycle count} {Oxs_CGEvolve:evolver:Cycle count} {Oxs_CGEvolve:evolver:Cycle sub count} {Oxs_CGEvolve:evolver:Energy calc count} Oxs_UniformExchange:exchange:Energy {Oxs_UniformExchange:exchange:Max Spin Ang} {Oxs_UniformExchange:exchange:Stage Max Spin Ang} {Oxs_UniformExchange:exchange:Run Max Spin Ang} Oxs_Demag:demag:Energy Oxs_UniaxialAnisotropy:uniaxialanisotropy:Energy Oxs_DMI_Cnv:dmi:Energy Oxs_FixedZeeman:zeeman:Energy Oxs_CubicAnisotropy:cubicanisotropy:Energy Oxs_MinDriver::Iteration {Oxs_MinDriver::Stage iteration} Oxs_MinDriver::Stage Oxs_MinDriver::mx    Oxs_MinDriver::my    Oxs_MinDriver::mz   
# Units:                 A/m                                 J                                J                                 {}                                   {}                                        {}                                      {}                                   {}                                      {}                                     J                                      deg                                            deg                                              deg                                 J                                   J                                   J                          J                                   J                                 {}                           {}                         {}                 {}                   {}                   {}           
                  283199.29545099998                7.5096367575099996e-18               7.5096367575099996e-18               0                                    0                                         1                                       1                                    0                                       1                                     0                                       0                                              0                                                0                                   7.4096367575100001e-18                 9.9999999999999998e-20                 0                         0                                    0                                 0                            0                          0                    1                    0                    0                  
                  282974.71825199999                7.5041098042900002e-18              -5.5269532135799996e-21               1                                    0                                         1                                       1                                    0                                       2                                     2.1043336382599998e-25                     0.050703137660099998                            0.050703137660099998                              0.050703137660099998                 7.4083780127900004e-18                 9.9999988414799998e-20                -8.9163779562599993e-24      -4.2594921962800001e-21                  1.2334385909400001e-27               1                            1                          0                    0.99999993832800005  1.9247230072400001e-21  0.00030814510822700002
                  232755.210597                     6.6451989185299998e-18              -8.5891088576799998e-19               2                                    0                                         1                                       1                                    0                                       3                                     8.4572798692399996e-21                     10.1891770775                                  10.1891770775                                    10.1891770775                       7.39670003164e-18                   9.9531245627399999e-20                -1.7573929259800001e-21      -8.5778170685300003e-19                  4.9461172455200002e-23               2                            2                          0                    0.99749952214299997  1.73630806702e-19    0.062054635790700002
                  184870.10873400001                6.2983474907399999e-18              -3.4685142778100001e-19               3                                    0                                         2                                       2                                    0                                       4                                     2.66798624883e-20                       18.118369595899999                             18.118369595899999                               18.118369595899999                  7.5663629242699998e-18                 9.87377239196e-20                  -3.7143104439099996e-21      -1.3898540435599999e-18                  1.35334072646e-22                 3                            3                          0                    0.99295815071899995  9.9217603829799996e-19  0.100546427822     
                  140614.959328                     6.1177571067800004e-18              -1.8059038396800001e-19               4                                    0                                         3                                       3                                    0                                       5                                     4.7252160319799997e-20                     23.668455161400001                             23.668455161400001                               23.668455161400001                  7.6522700222099995e-18                 9.8096591186e-20                   -5.8733110894199997e-21      -1.6741993235699999e-18                  2.10967717624e-22                 4                            4                          0                    0.98850371905500001  3.04267318411e-18    0.121116862758     
                  140266.011451                     6.1166858801000001e-18              -1.07122668045e-21                 5                                    0                                         3                                       3                                    0                                       6                                     4.7423813576799998e-20                     23.708278893300001                             23.708278893300001                               23.708278893300001                  7.6530773493799993e-18                 9.8091487633999994e-20                -5.8883442433900003e-21      -1.6762299861999999e-18                  2.1155994407200001e-22               5                            5                          0                    0.98846680657899999  1.0583211075200001e-18  0.121263767301     
                  134179.80613800001                5.9630248615700003e-18              -1.53661018529e-19                 6                                    0                                         4                                       4                                    0                                       7                                     6.58838374139e-20                       26.8051605709                                  26.8051605709                                    26.8051605709                       7.6080503579499993e-18                 9.7696238933199994e-20                -8.1423468724500003e-21      -1.8007362390799999e-18                  2.7301322486900001e-22               6                            6                          0                    0.98410997002699996  3.9687041531899999e-19  0.13027094256999999
                  133836.688964                     5.9552540245999998e-18              -7.7708369716399997e-21               7                                    0                                         4                                       4                                    0                                       8                                     6.7026250239799995e-20                     26.9728458393                                  26.9728458393                                    26.9728458393                       7.6058821788399996e-18                 9.7673450149799999e-20                -8.2594591406299996e-21      -1.8073449096499998e-18                  2.7651415512999998e-22               7                            7                          0                    0.98383879918999995 -2.6458027687899998e-19  0.13074903465599999
                  138309.923431                     5.7978774078899999e-18              -1.5737661670999999e-19               8                                    0                                         5                                       5                                    0                                       9                                     8.0820787274999998e-20                     27.692648934699999                             27.692648934699999                               27.692648934699999                  7.4823799255100003e-18                 9.7475644416399999e-20                -1.0062665612e-20         -1.8530676172399999e-18                  3.3133352965700002e-22               8                            8                          0                    0.97909154384200003  2.64580276879e-18    0.134056759621     
                  137556.09217300001                5.6420466962000002e-18              -1.5583071168500001e-19               9                                    0                                         6                                       6                                    0                                       10                                    9.3525539653999995e-20                     27.3897090189                                  27.692648934699999                               27.692648934699999                  7.3402980018399999e-18                 9.7362784250899998e-20                -1.10968048032e-20        -1.8784263418100001e-18                  3.8351706666299998e-22               9                            9                          0                    0.97374282729600004  7.9374083063799999e-19  0.135891289788     
                  133424.53977900001                5.4835556449700001e-18              -1.58491051232e-19                 10                                   0                                         7                                       7                                    0                                       11                                    1.07452674772e-19                       29.183003523299998                             29.183003523299998                               29.183003523299998                  7.1796690889800004e-18                 9.7306468134599997e-20                -1.1486584871e-20         -1.88981887339e-18                    4.3287134668399996e-22               10                           10                         0                    0.967560554214      -1.3229013843999999e-18  0.13671546147700001
                  126303.969319                     5.3245387560899997e-18              -1.59016888877e-19                 11                                   0                                         8                                       8                                    0                                       12                                    1.22292980181e-19                       31.538047350199999                             31.538047350199999                               31.538047350199999                  7.0072426119200007e-18                 9.7297447793699994e-20                -1.1354148136299999e-20      -1.8914182860499998e-18                  4.7815037930799998e-22               11                           11                         0                    0.96051989873900001  5.2916055375900001e-19  0.13683116803600001
                  115870.99514                      5.1685323531099997e-18              -1.56006402977e-19                 12                                   0                                         9                                       9                                    0                                       13                                    1.3738097265499999e-19                     33.564803841500002                             33.564803841500002                               33.564803841500002                  6.8297467433500003e-18                 9.7329437600900005e-20                -1.08450200378e-20        -1.8855984009700001e-18                  5.1862051944600004e-22               12                           12                         0                    0.95266196628099997  1.85206193816e-18    0.13641013918200001
                  100659.295006                     5.01918202239e-18                -1.4935033072300001e-19               13                                   0                                         10                                      10                                   0                                       14                                    1.5275167420699999e-19                     35.204198140599999                             35.204198140599999                               35.204198140599999                  6.65308841143e-18                   9.7393941924500004e-20                -1.0108242466200001e-20      -1.8744974243699999e-18                  5.5366166191e-22                  13                           13                         0                    0.94397502063799998 -3.7041238763099997e-18  0.13560705950099999
                  76593.766893499997                4.8793458904799998e-18              -1.3983613191599999e-19               14                                   0                                         11                                      11                                   0                                       15                                    1.6957554182400001e-19                     36.334451688000001                             36.334451688000001                               36.334451688000001                  6.4809582418299999e-18                 9.7481150551199995e-20                -9.2696482856499994e-21      -1.8599819054599999e-18                  5.8251001265399998e-22               14                           14                         0                    0.93423867542299999 -4.7624449838299998e-18  0.13455696105199999
                  65889.452657300004                4.7517886586800003e-18              -1.2755723180000001e-19               15                                   0                                         12                                      12                                   0                                       16                                    1.8973507469099999e-19                     39.122740264100003                             39.122740264100003                               39.122740264100003                  6.3163539431399998e-18                 9.7579500143399996e-20                -8.4322686084899999e-21      -1.8440528586500001e-18                  6.05267963971e-22                 15                           15                         0                    0.92300716878400002 -4.2332844300700002e-18  0.133404603535     
                  65274.465052200001                4.7462348261299998e-18              -5.5538325423300001e-21               16                                   0                                         12                                      12                                   0                                       17                                    1.91121700256e-19                       39.434705276800003                             39.434705276800003                               39.434705276800003                  6.30839737524e-18                   9.7584391247400003e-20                -8.3928065170899993e-21      -1.8430816210600001e-18                  6.0578696773300002e-22               16                           16                         0                    0.92239279175400002 -6.3499266451100003e-18  0.133334341143     
                  51824.440333600003                4.64598943774e-18                -1.00245388397e-19                 17                                   0                                         13                                      13                                   0                                       18                                    2.1233082911699999e-19                     40.11733873                                    40.11733873                                      40.11733873                         6.1749593584599999e-18                 9.7663448669099998e-20                -7.7509862618700006e-21      -1.8318389127300001e-18                  6.25700485293e-22                 17                           17                         0                    0.91088935398399995  2.64580276879e-18    0.13252100814100001
                  42159.787701499998                4.5696629257900004e-18              -7.6326511950300003e-20               18                                   0                                         14                                      14                                   0                                       19                                    2.3510294017300001e-19                     40.685405545800002                             40.685405545800002                               40.685405545800002                  6.0682291604300001e-18                 9.7714274810800002e-20                -7.3187833973200006e-21      -1.8247104847799999e-18                  6.45818552658e-22                 18                           18                         0                    0.89950287112299998  2.7780929072300001e-18  0.132005315166     
                  42125.178048299997                4.5691942437299999e-18              -4.6868205979900001e-22               19                                   0                                         14                                      14                                   0                                       20                                    2.3534437839599999e-19                     40.690223877000001                             40.690223877000001                               40.690223877000001                  6.0674446438899998e-18                 9.7714632669599994e-20                -7.3161348669299999e-21      -1.8246391742699998e-18                  6.4589790485900002e-22               19                           19                         0                    0.89941051552600004 -6.8790871988599998e-18  0.132000156338     
                  29368.625124499998                4.5166282980799998e-18              -5.2565945642199998e-20               20                                   0                                         15                                      15                                   0                                       21                                    2.5828375751199999e-19                     41.681970944699998                             41.681970944699998                               41.681970944699998                  5.99180978311e-18                   9.7724551136999994e-20                -7.1588944002399996e-21      -1.8246971165500001e-18                  6.6621728109899995e-22               20                           20                         0                    0.888798604617       2.1166422150400002e-18  0.132004348066     
                  28493.829851499999                4.4811954696600001e-18              -3.5432828423199999e-20               21                                   0                                         16                                      16                                   0                                       22                                    2.7910301678800002e-19                     43.264382768499999                             43.264382768499999                               43.264382768499999                  5.9320735326099999e-18                 9.7733003253900001e-20                -7.1995715139199999e-21      -1.82120310717e-18                    6.8859569051900004e-22               21                           21                         0                    0.87929480052700004 -2.4738255888200001e-17  0.13175158040000001
                  29152.533712                      4.4775596975499996e-18              -3.6357721090999996e-21               22                                   0                                         16                                      16                                   0                                       23                                    2.8360320241100002e-19                     43.596363234000002                             43.596363234000002                               43.596363234000002                  5.9231575712199997e-18                 9.77337936978e-20                  -7.2172199991000005e-21      -1.8204091672699999e-18                  6.9151749100299997e-22               22                           22                         0                    0.87778914488100002 -2.73179135878e-17    0.13169414428199999
                  24007.136436600002                4.4684175963400001e-18              -9.1421012127500005e-21               23                                   1                                         17                                      17                                   0                                       25                                    2.8765117671700002e-19                     43.635684916599999                             43.635684916599999                               43.635684916599999                  5.9196736748700001e-18                 9.7697233023799998e-20                -7.2088309655200003e-21      -1.8301007406499999e-18                  7.0508334499299997e-22               23                           23                         0                    0.87569642228        2.8111654418400003e-17  0.13239526328599999
                  22043.974873800002                4.4504200204199997e-18              -1.79975759143e-20                 24                                   1                                         17                                      18                                   1                                       26                                    3.0059032327800002e-19                     44.273476809100003                             44.273476809100003                               44.273476809100003                  5.8893198047899998e-18                 9.7696583030899996e-20                -7.3131262676400004e-21      -1.83060039743e-18                    7.2683302788499997e-22               24                           24                         0                    0.87014879749399998  2.26216136732e-17    0.132431410035     
                  21911.975729400001                4.4440881735099998e-18              -6.3318469155000003e-21               25                                   1                                         17                                      18                                   1                                       27                                    3.09394470908e-19                       44.572026746699997                             44.572026746699997                               44.572026746699997                  5.8740086353e-18                    9.7695600979000004e-20                -7.3799150396e-21         -1.8303672430400001e-18                  7.3662440493400001e-22               25                           25                         0                    0.86734225568599999  1.4022754674599999e-17  0.13241454291099999
                  17106.271040200001                4.4393837426099998e-18              -4.7044308978500002e-21               26                                   2                                         18                                      19                                   0                                       29                                    3.1165373690299998e-19                     44.978005237399998                             44.978005237399998                               44.978005237399998                  5.8618334204400001e-18                 9.7704671008599999e-20                -7.3549328424799994e-21      -1.8251915418300001e-18                  7.3838893510000004e-22               26                           26                         0                    0.865648241865       1.3758174397700001e-17  0.13204011635099999
                  14121.4401137                     4.43311289243e-18                -6.27085017918e-21                 27                                   2                                         18                                      20                                   1                                       30                                    3.1782377306199999e-19                     45.461234915299997                             45.461234915299997                               45.461234915299997                  5.8509357579200002e-18                 9.7691393091700001e-20                -7.3848191540799998e-21      -1.8267008252099999e-18                  7.4761271987100003e-22               27                           27                         0                    0.86272191997299996 -2.7780929072300001e-18  0.13214930267399999
                  17881.268323600001                4.42591856981e-18                -7.1943226186600004e-21               28                                   2                                         18                                      20                                   1                                       31                                    3.3496968402399999e-19                     47.523246484200001                             47.523246484200001                               47.523246484200001                  5.8285785611299998e-18                 9.7663299437700006e-20                -7.4832541993799995e-21      -1.82857618616e-18                    7.6646558032500004e-22               28                           28                         0                    0.85674461763099996 -2.7780929072300001e-18  0.13228497220300001
                  6702.3886747799997                4.4232300782100002e-18              -2.6884915991399999e-21               29                                   3                                         19                                      21                                   0                                       33                                    3.3433875178400001e-19                     47.831985103199997                             47.831985103199997                               47.831985103199997                  5.8315383645399999e-18                 9.7661031937500006e-20                -7.4966946981999994e-21      -1.83358308529e-18                    7.71709942934e-22                 29                           29                         0                    0.85662191670400001 -2.7780929072300001e-18  0.132647187088     
                  6940.7484343400001                4.4220414390699997e-18              -1.1886391396099999e-21               30                                   3                                         19                                      22                                   1                                       34                                    3.3550466297700001e-19                     48.034131346999999                             48.034131346999999                               48.034131346999999                  5.8278171705099998e-18                 9.7662070898800005e-20                -7.48799107887e-21        -1.83223191515e-18                    7.7744091124899996e-22               30                           30                         0                    0.85601186229000004  7.14366747574e-18    0.13254943917600001
                  10956.3391503                     4.4219319703499997e-18              -1.0946872736499999e-22               31                                   3                                         19                                      22                                   1                                       35                                    3.3706970488500001e-19                     48.237092106299997                             48.237092106299997                               48.237092106299997                  5.8247240104499997e-18                 9.76621698848e-20                  -7.4816239811199993e-21      -1.83082570883e-18                    7.8341793591000002e-22               31                           31                         0                    0.85537437865599997  1.9843520766e-17     0.13244770977199999
                  8665.5473514500009                4.4218458328300001e-18              -8.6137521671300002e-23               31                                   4                                         19                                      22                                   1                                       36                                    3.3639802504300001e-19                     48.156093704900002                             48.237092106299997                               48.237092106299997                  5.8258813033200001e-18                 9.7662243119399997e-20                -7.4838811226300007e-21      -1.8313928638499999e-18                  7.8100632182100003e-22               32                           32                         0                    0.85563178491900005  1.9843520766e-17     0.132488739557     