# ODT 1.0
# Table Start
# Title: mmArchive Data Table, Tue Jun 30 13:03:23 BST 2020
# Columns: {Oxs_CGEvolve:evolver:Max mxHxm} {Oxs_CGEvolve:evolver:Total energy} {Oxs_CGEvolve:evolver:Delta E} {Oxs_CGEvolve:evolver:Bracket count} {Oxs_CGEvolve:evolver:Line min count} {Oxs_CGEvolve:evolver:Conjugate cycle count} {Oxs_CGEvolve:evolver:Cycle count} {Oxs_CGEvolve:evolver:Cycle sub count} {Oxs_CGEvolve:evolver:Energy calc count} Oxs_UniformExchange:exchange:Energy {Oxs_UniformExchange:exchange:Max Spin Ang} {Oxs_UniformExchange:exchange:Stage Max Spin Ang} {Oxs_UniformExchange:exchange:Run Max Spin Ang} Oxs_DMI_Cnv:dmi:Energy Oxs_UniaxialAnisotropy:uniaxialanisotropy:Energy Oxs_MinDriver::Iteration {Oxs_MinDriver::Stage iteration} Oxs_MinDriver::Stage Oxs_MinDriver::mx    Oxs_MinDriver::my    Oxs_MinDriver::mz   
# Units:                 A/m                                 J                                J                                 {}                                   {}                                        {}                                      {}                                   {}                                      {}                                     J                                      deg                                            deg                                              deg                                 J                                   J                                    {}                           {}                         {}                 {}                   {}                   {}           
                  0.083120538528399998              -3.1449452238699998e-19               0                                 290                                  247                                       18                                      270                                  236                                     538                                   7.7976190740499997e-19                     23.930972901699999                             163.90368778000001                               163.90368778000001                 -1.7895235898099999e-18                 6.9526716001700002e-19                  522                          522                        0                   -0.0010624360938399999 -3.2348372358099999e-10  0.77933822227500005
# Table End
