# ODT 1.0
# Table Start
# Title: mmArchive Data Table, Tue Jun 30 13:05:27 BST 2020
# Columns: {Oxs_RungeKuttaEvolve:evolver:Total energy} {Oxs_RungeKuttaEvolve:evolver:Energy calc count} {Oxs_RungeKuttaEvolve:evolver:Max dm/dt} Oxs_RungeKuttaEvolve:evolver:dE/dt {Oxs_RungeKuttaEvolve:evolver:Delta E} Oxs_UniformExchange:exchange:Energy {Oxs_UniformExchange:exchange:Max Spin Ang} {Oxs_UniformExchange:exchange:Stage Max Spin Ang} {Oxs_UniformExchange:exchange:Run Max Spin Ang} Oxs_Demag:demag:Energy Oxs_FixedZeeman:zeeman:Energy Oxs_TimeDriver::Iteration {Oxs_TimeDriver::Stage iteration} Oxs_TimeDriver::Stage Oxs_TimeDriver::mx   Oxs_TimeDriver::my   Oxs_TimeDriver::mz   {Oxs_TimeDriver::Last time step} {Oxs_TimeDriver::Simulation time}
# Units:                        J                                             {}                                         deg/ns                                 J/s                                   J                                     J                                      deg                                            deg                                              deg                                 J                          J                          {}                            {}                          {}                   {}                   {}                   {}                          s                                 s                
                       1.64607408584e-18                              43                                           235.801257569                        -1.54481152571e-10                   -2.1357425056699998e-22                  1.2595416569300001e-18                     58.777756053399997                             59.074933362199999                               59.074933362199999                  3.8653242891100002e-19       0                           6                             6                           0                     0.29862773833200001  0.00092941834596500003  0.029440855029700001        1.45604544141e-12                9.9999999999999994e-12       
                       1.64407181003e-18                              80                                           380.50723110299998                   -2.33765563913e-10                   -1.54232307625e-22                    1.26454750948e-18                       58.088234973600002                             58.777756053399997                               59.074933362199999                  3.7952430055800002e-19       0                           13                            6                           1                     0.283719734434       0.0031688403688200002  0.0293358559125            6.6339642770400004e-13              1.9999999999999999e-11       
                       1.64170343585e-18                              117                                          499.70464912800003                   -2.2690145150100001e-10                 -1.6268344460000001e-22                  1.2704032467899999e-18                     59.279526393099999                             59.279526393099999                               59.279526393099999                  3.7130018906099998e-19       0                           20                            6                           2                     0.26770634545700001  0.0073420509410100001  0.029063641216             7.1243257343999997e-13              3e-11                     
                       1.6396855867600001e-18                            160                                          564.26448294900001                   -1.7515031819900001e-10                 -1.3458096939600001e-22                  1.27449657126e-18                       60.6377428407                                  60.6377428407                                    60.6377428407                       3.6518901550299998e-19       0                           27                            6                           3                     0.25489003570800001  0.0135074016653      0.0285895580302            7.5942403921899998e-13              3.9999999999999998e-11       
                       1.63816582609e-18                              197                                          605.54378188800001                   -1.32887946307e-10                   -1.2996001822499999e-22                  1.2753593331500001e-18                     61.4394074876                                  61.4394074876                                    61.4394074876                       3.6280649293999998e-19       0                           34                            6                           4                     0.24722106856000001  0.0212478159461      0.028005989845499998        9.6652630799199997e-13              5.0000000000000002e-11       
                       1.6369624816000001e-18                            234                                          594.37528597400001                   -1.10468172911e-10                   -9.1265251132500001e-23                  1.27355934115e-18                       61.550121190799999                             61.579334723999999                               61.579334723999999                  3.6340314044900001e-19       0                           41                            6                           5                     0.24448330448        0.029845803126900002  0.027509049865199999        8.2030920695399998e-13              6e-11                     
                       1.63594286926e-18                              271                                          532.86061734400005                   -9.3937019866999994e-11                 -8.2060917992900003e-23                  1.2708055093799999e-18                     61.196109493199998                             61.550121190799999                               61.579334723999999                  3.6513735987599998e-19       0                           48                            6                           6                     0.244996522726       0.0385034119528      0.027282962548             8.6547124336800003e-13              7.0000000000000004e-11       
                       1.63510142118e-18                              308                                          463.96143618299999                   -7.4490369458899996e-11                 -7.5763041775699998e-23                  1.26854042689e-18                       60.654480675400002                             61.196109493199998                               61.579334723999999                  3.6656099428799999e-19       0                           55                            6                           7                     0.246617541936       0.046536046652300003  0.027400750824500001        1.0018149742100001e-12              7.9999999999999995e-11       
                       1.6344586868600001e-18                            345                                          413.23353488399999                   -5.53721960299e-11                   -5.3953765574300004e-23                  1.26730545739e-18                       60.024449243500001                             60.654480675400002                               61.579334723999999                  3.6715322946900002e-19       0                           62                            6                           8                     0.24761193762700001  0.053511564691599997  0.027806761148799999        9.5856058196199999e-13              8.9999999999999999e-11       
                       1.6339752478499999e-18                            382                                          390.88853365599999                   -4.3558781309299998e-11                 -4.2979138437499998e-23                  1.26698837416e-18                       59.281701394300001                             60.024449243500001                               61.579334723999999                  3.66986873693e-19         0                           69                            6                           9                     0.24709314067599999  0.059313969893299998  0.028357822879499998        9.7622446388399999e-13              1e-10                     
                       1.63356276147e-18                              419                                          386.19291497199998                   -4.0862279298000002e-11                 -3.9777506235399999e-23                  1.2673178103799999e-18                     58.369773926000001                             59.281701394300001                               61.579334723999999                  3.66244951099e-19         0                           76                            6                           10                    0.244990037725       0.064117152352200002  0.028882549684399999        9.7137100490300009e-13              1.0999999999999999e-10       
                       1.63314763156e-18                              456                                          391.68686524600002                   -4.32108458616e-11                   -4.2021830196100001e-23                  1.2680550032999999e-18                     58.979177476300002                             58.979177476300002                               61.579334723999999                  3.6509262825399998e-19       0                           83                            6                           11                    0.241734475526       0.068280812560299997  0.02923924894              9.7338172307500009e-13              1.2e-10                   
                       1.63270343921e-18                              493                                          397.46694357899997                   -4.6168236560899997e-11                 -4.4874106568400001e-23                  1.2689267812200001e-18                     60.209819494000001                             60.209819494000001                               61.579334723999999                  3.6377665798199999e-19       0                           90                            6                           12                    0.237905269334       0.072211661755000003  0.0293581550933            9.7222360374700007e-13              1.2999999999999999e-10       
                       1.6322333708199999e-18                            530                                          403.75453536800001                   -4.8452056178900002e-11                 -4.7096942537199997e-23                  1.26963424047e-18                       61.177309168800001                             61.177309168800001                               61.579334723999999                  3.6259913035900002e-19       0                           97                            6                           13                    0.2339693796         0.076243628870899999  0.0292536895527            9.71951134874e-13                1.4000000000000001e-10       
                       1.6317397014599999e-18                            567                                          408.63122430499999                   -5.1122567317199999e-11                 -4.9622207518699998e-23                  1.2699799640699999e-18                     61.811267790000002                             61.811267790000002                               61.811267790000002                  3.6175973739699999e-19       0                           104                           6                           14                    0.23015981800999999  0.080571409569499999  0.0290052206633            9.7148880405399991e-13              1.5e-10                   
                       1.6312133245099999e-18                            604                                          414.060366633                        -5.50338423803e-11                   -5.3359135440200001e-23                  1.2699442313699999e-18                     62.0679862673                                  62.0679862673                                    62.0679862673                       3.6126909314200002e-19       0                           111                           6                           15                    0.22647395418499999  0.085240620509500001  0.0287195035933            9.7142278167500009e-13              1.5999999999999999e-10       
                       1.6306428323999999e-18                            641                                          447.09508630800002                   -5.9818987985899999e-11                 -5.7992524087799995e-23                  1.26963754299e-18                       61.920386435200001                             62.071447521400003                               62.071447521400003                  3.6100528940700002e-19       0                           118                           6                           16                    0.22274853880500001  0.090180496977399993  0.028491867342500001        9.7156334096800002e-13              1.7000000000000001e-10       
                       1.6300234875700001e-18                            678                                          478.19464209400002                   -6.4696131530800005e-11                 -6.2756664426400003e-23                  1.26921072118e-18                       61.358177066300001                             61.920386435200001                               62.071447521400003                  3.6081276638299999e-19       0                           125                           6                           17                    0.21876408088300001  0.095261185629000003  0.028378654190000002        9.718203332079999e-13              1.8e-10                   
                       1.62935698255e-18                              715                                          504.97760853199998                   -6.9203585952100006e-11                 -6.7172447430400003e-23                  1.2688109133699999e-18                     60.381706188599999                             61.358177066300001                               62.071447521400003                  3.60546069182e-19         0                           132                           6                           18                    0.214341971066       0.100353921042       0.028386855519100002        9.7199369926900003e-13              1.8999999999999999e-10       
                       1.6286485651699999e-18                            752                                          522.75603248100003                   -7.3001186146599998e-11                 -7.0907916077900001e-23                  1.2685711840300001e-18                     59.014304374200002                             60.381706188599999                               62.071447521400003                  3.6007738113499999e-19       0                           139                           6                           19                    0.209408088587       0.105371812234       0.028481223318100001        9.719583545490001e-13              2.0000000000000001e-10       
                       1.62790838645e-18                              789                                          529.94953435100001                   -7.5410801398799999e-11                 -7.3314809261599998e-23                  1.2685871568900001e-18                     57.302565600500003                             59.014304374200002                               62.071447521400003                  3.5932122956399998e-19       0                           146                           6                           20                    0.20401085112799999  0.110279009481       0.028604149234299998        9.7167975411399995e-13              2.1e-10                   
                       1.6271548474400001e-18                            826                                          522.79850521000003                   -7.5533731004600002e-11                 -7.3526112345600004e-23                  1.26888178513e-18                       58.618304842500002                             58.618304842500002                               62.071447521400003                  3.5827306230999999e-19       0                           153                           6                           21                    0.19829993129599999  0.11507286039        0.028700040064299999        9.7120844755400004e-13              2.1999999999999999e-10       
                       1.6264140524799999e-18                            863                                          502.120556217                        -7.2829547350100006e-11                 -7.1062127050000005e-23                  1.26939254232e-18                       60.148524248999998                             60.148524248999998                               62.071447521400003                  3.5702151015999999e-19       0                           160                           6                           22                    0.19248216813499999  0.11975563708299999  0.028735323506600002        9.7157410922800007e-13              2.3000000000000001e-10       
                       1.6257138447000001e-18                            900                                          469.91147187000001                   -6.7517402942100003e-11                 -6.6000746743199998e-23                  1.26999985137e-18                       61.245702037299999                             61.245702037299999                               62.071447521400003                  3.5571399333000002e-19       0                           167                           6                           23                    0.186770323164       0.124312576996       0.0287076582372            9.7143237303300004e-13              2.4e-10                   
                       1.62507621764e-18                              937                                          430.59787328200002                   -6.0497308488100004e-11                 -5.9207220278699994e-23                  1.27057745355e-18                       61.887341793300003                             61.887341793300003                               62.071447521400003                  3.5449876408699999e-19       0                           174                           6                           24                    0.18133666299100001  0.128704396167       0.028642409382900001        9.7093388868500005e-13              2.5000000000000002e-10       
                       1.6245125394099999e-18                            974                                          390.86365309899998                   -5.2916453241099998e-11                 -5.1832241083100003e-23                  1.2710310951200001e-18                     62.095159069799998                             62.095159069799998                               62.095159069799998                  3.5348144428799998e-19       0                           181                           6                           25                    0.176281140694       0.13287329512900001  0.028579406473700001        9.7059674563199994e-13              2.5999999999999998e-10       
                       1.62402314529e-18                              1011                                         378.14744414900002                   -4.5782380893999997e-11                 -4.4856893881499998e-23                  1.27130884568e-18                       61.925365690200003                             62.095159069799998                               62.095159069799998                  3.5271429960300002e-19       0                           188                           6                           26                    0.17162100829999999  0.136756869453       0.0285563219935            9.7030632616999995e-13              2.7e-10                   
                       1.62359995136e-18                              1048                                         363.22871550799999                   -3.97586416418e-11                   -3.89411868028e-23                    1.27139497524e-18                       61.439680952700002                             61.925365690200003                               62.095159069799998                  3.5220497611900001e-19       0                           195                           6                           27                    0.167302475388       0.140303954983       0.028595297345399999        9.7006482855400005e-13              2.8000000000000002e-10       
                       1.62322996817e-18                              1085                                         351.75500025500003                   -3.5168780574599998e-11                 -3.4474422722999999e-23                  1.27130334882e-18                       60.699139365100002                             61.439680952700002                               62.095159069799998                  3.5192661935100002e-19       0                           202                           6                           28                    0.163227773735       0.143487782945       0.028697021840799999        9.7165604167199998e-13              2.8999999999999998e-10       
                       1.62289835873e-18                              1122                                         342.21203237499998                   -3.2076667711999999e-11                 -3.1382521840599999e-23                  1.27107523139e-18                       59.749101190600001                             60.699139365100002                               62.095159069799998                  3.5182312733500002e-19       0                           209                           6                           29                    0.15928651021000001  0.14631359059900001  0.028842975344200002        9.7111994127299996e-13              3e-10                     
                       1.6225905772300001e-18                            1159                                         339.15762776299999                   -3.0375548639199997e-11                 -2.9666136452299999e-23                  1.27077339146e-18                       58.625020022199998                             59.749101190600001                               62.095159069799998                  3.5181718576299999e-19       0                           216                           6                           30                    0.155380851396       0.148819594276       0.029003507759             9.71073581628e-13                3.1000000000000002e-10       
                       1.62229363924e-18                              1196                                         339.10239728400001                   -2.98730873502e-11                   -2.9113796281600003e-23                  1.2704695753599999e-18                     57.996663133699997                             58.625020022199998                               62.095159069799998                  3.5182406388300002e-19       0                           223                           6                           31                    0.15143866164799999  0.151071823425       0.029147865875600001        9.7070171859500004e-13              3.1999999999999998e-10       
                       1.62199659599e-18                              1233                                         345.27608512199998                   -3.03650505134e-11                   -2.9537974732599999e-23                  1.2702292886800001e-18                     58.8581079657                                  58.8581079657                                    62.095159069799998                  3.5176730730999999e-19       0                           230                           6                           32                    0.14741440837        0.15315446379        0.029252382721             9.7041137085699995e-13              3.3e-10                   
                       1.6216903914e-18                               1270                                         353.43611961599998                   -3.1682102025599998e-11                 -3.0767570062800002e-23                  1.2701026338999999e-18                     59.601018656299999                             59.601018656299999                               62.095159069799998                  3.5158775749499999e-19       0                           237                           6                           33                    0.14328176910500001  0.155157951214       0.029304543779900001        9.7006218649900004e-13              3.4000000000000001e-10       
                       1.62136740619e-18                              1307                                         365.546573072                        -3.3704852099e-11                    -3.2685557481499999e-23                  1.2701238363200001e-18                     60.2260740523                                  60.2260740523                                    62.095159069799998                  3.5124356987400002e-19       0                           244                           6                           34                    0.139023380127       0.15716708101599999  0.029302600445599999        9.6972292530999997e-13              3.4999999999999998e-10       
                       1.62102108788e-18                              1344                                         377.57474802199999                   -3.6331186550199997e-11                 -3.5192772394999999e-23                  1.2703166473000001e-18                     60.7211167922                                  60.7211167922                                    62.095159069799998                  3.5070444058499998e-19       0                           251                           6                           35                    0.134622442629       0.15925083923700001  0.029252087778200001        9.6937759720399996e-13              3.6e-10                   
                       1.62064602051e-18                              1381                                         389.82251116499998                   -3.9425714891700003e-11                 -3.8160414486100001e-23                  1.2706988727e-18                        61.066816858400003                             61.066816858400003                               62.095159069799998                  3.4994714781900002e-19       0                           258                           6                           36                    0.13005895840699999  0.16145478132499999  0.029161368439399999        9.6904159402099999e-13              3.7000000000000001e-10       
                       1.62023859947e-18                              1418                                         399.07254742700002                   -4.2751886032100001e-11                 -4.1365201084800002e-23                  1.2712810161300001e-18                     61.234851479600003                             61.234851479600003                               62.095159069799998                  3.4895758333700002e-19       0                           265                           6                           37                    0.12531121920999999  0.163795845637       0.029038251942599999        9.6871061810399999e-13              3.7999999999999998e-10       
                       1.61979823699e-18                              1455                                         403.63929959900003                   -4.5940202429300003e-11                 -4.4455591179900002e-23                  1.2720575576299999e-18                     61.1971487016                                  61.246389028899998                               62.095159069799998                  3.4774067936300002e-19       0                           272                           6                           38                    0.120361386497       0.166259039596       0.028888934299             9.6838925651600001e-13              3.9e-10                   
                       1.61932870037e-18                              1492                                         401.92020533499999                   -4.849942882e-11                     -4.6959931013000002e-23                  1.27299358909e-18                       60.929287889500003                             61.1971487016                                    62.095159069799998                  3.4633511127699999e-19       0                           279                           6                           39                    0.115202989674       0.16879566304999999  0.028719463091599999        9.6807304546599999e-13              4.0000000000000001e-10       
                       1.61883882003e-18                              1529                                         391.33516834699998                   -4.9934600844700002e-11                 -4.8396721739300001e-23                  1.2740133333099999e-18                     60.420771775600002                             60.929287889500003                               62.095159069799998                  3.4482548671799998e-19       0                           286                           6                           40                    0.109847779233       0.17132378032000001  0.028538832743600001        9.6776272032699991e-13              4.0999999999999998e-10       
                       1.61834164818e-18                              1566                                         376.97172589500002                   -4.9932264734200003e-11                 -4.84494607034e-23                    1.2749990563400001e-18                     59.681575389300001                             60.420771775600002                               62.095159069799998                  3.4334259184099998e-19       0                           293                           6                           41                    0.10432950757499999  0.17373287391200001  0.028361995000000001        9.6745116750900002e-13              4.2e-10                   