# ODT 1.0
# Table Start
# Title: mmArchive Data Table, Tue Jun 30 13:04:39 BST 2020
# Columns: {Oxs_CGEvolve:evolver:Max mxHxm} {Oxs_CGEvolve:evolver:Total energy} {Oxs_CGEvolve:evolver:Delta E} {Oxs_CGEvolve:evolver:Bracket count} {Oxs_CGEvolve:evolver:Line min count} {Oxs_CGEvolve:evolver:Conjugate cycle count} {Oxs_CGEvolve:evolver:Cycle count} {Oxs_CGEvolve:evolver:Cycle sub count} {Oxs_CGEvolve:evolver:Energy calc count} Oxs_CubicAnisotropy:cubicanisotropy:Energy Oxs_MinDriver::Iteration {Oxs_MinDriver::Stage iteration} Oxs_MinDriver::Stage Oxs_MinDriver::mx    Oxs_MinDriver::my    Oxs_MinDriver::mz   
# Units:                 A/m                                 J                                J                                 {}                                   {}                                        {}                                      {}                                   {}                                      {}                                        J                                 {}                           {}                         {}                 {}                   {}                   {}           
                  0.039329985966                    5.7741173286099998e-36              -3.18461812802e-34                 14                                   4                                         9                                       12                                   3                                       19                                        5.7741173286099998e-36               18                           18                         0                    0.15000000578700001  0.050000016138600001  7.0221292844500004e-11
# Table End
