# ODT 1.0
# Table Start
# Title: mmArchive Data Table, Thu Nov 01 23:22:13 CET 2018
# Columns: {Oxs_RungeKuttaEvolve::Total energy} {Oxs_RungeKuttaEvolve::Energy calc count} {Oxs_RungeKuttaEvolve::Max dm/dt} Oxs_RungeKuttaEvolve::dE/dt {Oxs_RungeKuttaEvolve::Delta E} Oxs_UniformExchange::Energy {Oxs_UniformExchange::Max Spin Ang} {Oxs_UniformExchange::Stage Max Spin Ang} {Oxs_UniformExchange::Run Max Spin Ang} Oxs_FixedZeeman::Energy Oxs_TimeDriver::Iteration {Oxs_TimeDriver::Stage iteration} Oxs_TimeDriver::Stage Oxs_TimeDriver::mx   Oxs_TimeDriver::my   Oxs_TimeDriver::mz   {Oxs_TimeDriver::Last time step} {Oxs_TimeDriver::Simulation time}
# Units:                    J                                      {}                                  deg/ns                           J/s                            J                             J                              deg                                    deg                                      deg                              J                       {}                            {}                          {}                   {}                   {}                   {}                          s                                 s                
                   -2.1402338035654517e-18                    37                                    12877.726090852311            -1.240332062326949e-07          -9.2866034221068171e-20           0                               0                                      0                                        0                              -2.1402338035654517e-18      6                             6                           0                    -0.034455158201359803  0.82332592624139489  0.56652207481444972        7.4852673388388017e-13              9.9999999999999978e-13       
                   -2.2642228871041354e-18                    44                                    12873.108597067234            -1.2394427440172872e-07          -1.2398908353868395e-19           0                               0                                      0                                        0                              -2.2642228871041354e-18      8                             1                           1                    -0.063307942767342654  0.6765984651506789   0.73362566840202104        9.9999999999999998e-13              1.9999999999999996e-12       
                   -2.388120565872023e-18                    51                                    12868.233024816196            -1.2385040665813285e-07          -1.2389767876788726e-19           0                               0                                      0                                        0                              -2.388120565872023e-18      10                            1                           2                    -0.084879455528327499  0.49575246148904473  0.86430606555592759        9.9999999999999998e-13              2.9999999999999993e-12       
                   -2.5119219114443758e-18                    58                                    12863.099865269627            -1.237516180992982e-07          -1.238013455723525e-19           0                               0                                      0                                        0                              -2.5119219114443758e-18      12                            1                           3                    -0.097861116953556995  0.28996921923013474  0.95201946077150545        9.9999999999999998e-13              3.9999999999999991e-12       
                   -2.6356220108809616e-18                    65                                    12857.709635063169            -1.2364792459544382e-07          -1.2370009943658602e-19           0                               0                                      0                                        0                              -2.6356220108809616e-18      14                            1                           4                    -0.10138074318912402  0.069686344325520899  0.99240402978069642        9.9999999999999998e-13              4.9999999999999989e-12       
                   -2.7592159674962034e-18                    72                                    12852.062876171369            -1.2353934278422217e-07          -1.2359395661524199e-19           0                               0                                      0                                        0                              -2.7592159674962034e-18      16                            1                           5                    -0.095046429412276173 -0.1539324909108846   0.98349934646544035        9.9999999999999998e-13              5.9999999999999987e-12       
                   -2.882698901623811e-18                    79                                    12846.16015577536             -1.2342589006507339e-07          -1.2348293412760729e-19           0                               0                                      0                                        0                              -2.882698901623811e-18      18                            1                           6                    -0.078966026048183119 -0.36956419096006482  0.9258437640823588         9.9999999999999998e-13              6.9999999999999984e-12       
                   -3.0060659513756447e-18                    86                                    12840.002066124611            -1.2330758459333097e-07          -1.2336704975183369e-19           0                               0                                      0                                        0                              -3.0060659513756447e-18      20                            1                           7                    -0.053741239400209792 -0.56630048131056354  0.82244491855391333        9.9999999999999998e-13              7.9999999999999982e-12       
                   -3.1293122733945655e-18                    93                                    12833.589224392772            -1.2318444527408356e-07          -1.2324632201892102e-19           0                               0                                      0                                        0                              -3.1293122733945655e-18      22                            1                           8                    -0.020436678728331385 -0.73420058594344295  0.67862496399915873        9.9999999999999998e-13              8.999999999999998e-12       
                   -3.2524330436010161e-18                    100                                   12826.922272527732            -1.2305649175579466e-07          -1.2312077020645065e-19           0                               0                                      0                                        0                              -3.2524330436010161e-18      24                            1                           9                     0.019474555237073362 -0.86479429285341491  0.50174851544023491        9.9999999999999998e-13              9.9999999999999978e-12       
                   -3.3754234579331158e-18                    107                                   12820.001877095909            -1.2292374442368566e-07          -1.2299041433209958e-19           0                               0                                      0                                        0                              -3.3754234579331158e-18      26                            1                           10                    0.064185954715959684 -0.95150991025994325  0.30084722683500903        9.9999999999999998e-13              1.0999999999999998e-11       
                   -3.4982787330800045e-18                    114                                   12812.828729120856            -1.2278622439288463e-07          -1.2285527514688844e-19           0                               0                                      0                                        0                              -3.4982787330800045e-18      28                            1                           11                    0.11164952879532949 -0.99000545834086773  0.086160171628602095        9.9999999999999998e-13              1.1999999999999997e-11       
                   -3.6209941072082409e-18                    121                                   12805.403543916276            -1.226439535013459e-07          -1.227153741282368e-19           0                               0                                      0                                        0                              -3.6209941072082409e-18      30                            1                           12                    0.15967988161837607 -0.97838638093322072 -0.13138654805852856        9.9999999999999998e-13              1.2999999999999997e-11       
                   -3.7435648406809914e-18                    128                                   12797.727060913494            -1.2249695430254316e-07          -1.2257073347275085e-19           0                               0                                      0                                        0                              -3.7435648406809914e-18      32                            1                           13                    0.2060651470104031  -0.91729884613688195 -0.34073447442770605        9.9999999999999998e-13              1.3999999999999997e-11       
                   -3.8659862167697993e-18                    135                                   12789.800043483467            -1.223452500579418e-07          -1.2242137608880765e-19           0                               0                                      0                                        0                              -3.8659862167697993e-18      34                            1                           14                    0.24867913918727078 -0.8098940388063266  -0.53125354741314867        9.9999999999999998e-13              1.4999999999999997e-11       
                   -3.98825354235874e-18                    142                                   12781.623278753445            -1.2218886472925367e-07          -1.222673255889408e-19           0                               0                                      0                                        0                              -3.98825354235874e-18      36                            1                           15                    0.28558902389609953 -0.66166540853939704 -0.69328046025578016        9.9999999999999998e-13              1.5999999999999996e-11       
                   -4.1103621486406902e-18                    149                                   12773.197577418276            -1.2202782297047845e-07          -1.2210860628195005e-19           0                               0                                      0                                        0                              -4.1103621486406902e-18      38                            1                           16                    0.31515304874453309 -0.48016728981629025 -0.81860731102128836        9.9999999999999998e-13              1.6999999999999996e-11       
                   -4.2323073918055625e-18                    156                                   12764.523773546574            -1.2186215011973761e-07          -1.2194524316487173e-19           0                               0                                      0                                        0                              -4.2323073918055625e-18      40                            1                           17                    0.33610338330583239 -0.27462932813066065 -0.90089580299881233        9.9999999999999998e-13              1.7999999999999996e-11       
                   -4.3540846537202606e-18                    163                                   12755.602724381715            -1.2169187219090356e-07          -1.2177726191469861e-19           0                               0                                      0                                        0                              -4.3540846537202606e-18      42                            1                           18                    0.34760988244989538 -0.0554864216147683  -0.93599606123079315        9.9999999999999998e-13              1.8999999999999996e-11       
                   -4.4756893426001626e-18                    170                                   12746.43531013778             -1.2151701586503038e-07          -1.2160468887990193e-19           0                               0                                      0                                        0                              -4.4756893426001626e-18      44                            1                           19                    0.34932156110115242  0.16615184572648983 -0.92215400617875887        9.9999999999999998e-13              1.9999999999999996e-11       
                   -4.5971168936719278e-18                    177                                   12737.022433790584            -1.213376084815894e-07          -1.2142755107176551e-19           0                               0                                      0                                        0                              -4.5971168936719278e-18      46                            1                           20                    0.34138370537970614  0.37906526127026668 -0.86009690930692573        9.9999999999999998e-13              2.0999999999999995e-11       
                   -4.718362769827483e-18                    184                                   12727.365020863819            -1.211536780295164e-07          -1.2124587615555498e-19           0                               0                                      0                                        0                              -4.718362769827483e-18      48                            1                           21                    0.32442978577591725  0.57249184976452416 -0.75299295883466655        9.9999999999999998e-13              2.1999999999999995e-11       
                   -4.8394224622689027e-18                    191                                   12717.464019210451            -1.20965253138073e-07          -1.2105969244141967e-19           0                               0                                      0                                        0                              -4.8394224622689027e-18      50                            1                           22                    0.29954861936268168  0.73667266310436275 -0.60628707067909438        9.9999999999999998e-13              2.2999999999999995e-11       
                   -4.9602914911441119e-18                    198                                   12707.320398789407            -1.2077236306752966e-07          -1.2086902887520971e-19           0                               0                                      0                                        0                              -4.9602914911441119e-18      52                            1                           23                    0.26822848480600536  0.86334487464251697 -0.4274214633908448         9.9999999999999998e-13              2.3999999999999995e-11       
                   -5.0809654061731667e-18                    205                                   12696.93515143773             -1.2057503769967342e-07          -1.206739150290543e-19           0                               0                                      0                                        0                              -5.0809654061731667e-18      54                            1                           24                    0.23228106218422787  0.94615822677276173 -0.2254553571348212         9.9999999999999998e-13              2.4999999999999994e-11       
# Table End
