# ODT 1.0
# Table Start
# Title: mmArchive Data Table, Tue Jun 30 13:03:26 BST 2020
# Columns: {Anv_SpinTEvolve:evolver:Total energy} {Anv_SpinTEvolve:evolver:Energy calc count} {Anv_SpinTEvolve:evolver:Max dm/dt} Anv_SpinTEvolve:evolver:dE/dt {Anv_SpinTEvolve:evolver:Delta E} {Anv_SpinTEvolve:evolver:average u} Oxs_UniformExchange:exchange:Energy {Oxs_UniformExchange:exchange:Max Spin Ang} {Oxs_UniformExchange:exchange:Stage Max Spin Ang} {Oxs_UniformExchange:exchange:Run Max Spin Ang} Oxs_DMI_Cnv:dmi:Energy Oxs_UniaxialAnisotropy:uniaxialanisotropy:Energy Oxs_TimeDriver::Iteration {Oxs_TimeDriver::Stage iteration} Oxs_TimeDriver::Stage Oxs_TimeDriver::mx   Oxs_TimeDriver::my   Oxs_TimeDriver::mz   {Oxs_TimeDriver::Last time step} {Oxs_TimeDriver::Simulation time}
# Units:                     J                                        {}                                    deg/ns                             J/s                              J                                 m/s                                  J                                      deg                                            deg                                              deg                                 J                                   J                                    {}                            {}                          {}                   {}                   {}                   {}                          s                                 s                
                    -3.13875667952e-19                        61                                      5105.7866622600004               1.1315484867199999e-09             1.23443941197e-22                  400                                 7.8197203547000004e-19                     24.981919237900001                             24.981919237900001                               24.981919237900001                 -1.7914043032699999e-18                 6.9555659984900003e-19                  8                             8                           0                    -0.0043561615915099997  0.00171108001523     0.779308531676             1.1468024581399999e-13              9.9999999999999998e-13       
                    -3.1233647230799998e-19                      92                                      5393.82035739                    1.8817783300700001e-09             2.7149363728499998e-22                400                                 7.8590702798800005e-19                     25.999113650999998                             25.999113650999998                               25.999113650999998                 -1.7951656949199999e-18                 6.9692219462499996e-19                  14                            5                           1                    -0.0073992696247300004  0.0025270258546900002  0.77921183753000001        1.4818168538499999e-13              2e-12                     
                    -3.10162852781e-19                        129                                     5478.1059367999997               2.4105252125100001e-09             1.52590900174e-22                  400                                 7.9081882505599996e-19                     26.8395396656                                  26.8395396656                                    26.8395396656                      -1.80015577558e-18                   6.9917409774699998e-19                  21                            6                           2                    -0.010058095773799999  0.0025962575410399999  0.77910323586300001        6.3714562582199997e-14              3.0000000000000001e-12       
                    -3.0756514772400002e-19                      172                                     5775.5961171099998               2.75096131192e-09               2.02633296891e-22                  400                                 7.9631840109799996e-19                     27.523018150599999                             27.523018150599999                               27.523018150599999                 -1.8060352253499999e-18                 7.0215167653000001e-19                  28                            6                           3                    -0.0122427738457      0.00207841393126     0.77903673551700003        7.3971426929800001e-14              3.9999999999999999e-12       
                    -3.04698019769e-19                        209                                     6099.4084545699998               2.9386649478299998e-09             1.4176594020400001e-22                400                                 8.0207956614600004e-19                     27.968494226200001                             27.968494226200001                               27.968494226200001                 -1.8126501478199998e-18                 7.0587256190600001e-19                  35                            6                           4                    -0.0139151122379      0.0011385111115999999  0.77905799447099999        4.8388468037699998e-14              4.9999999999999997e-12       
                    -3.0167656408499998e-19                      246                                     6255.1935325200002               3.0509927276900001e-09             1.6271285379200001e-22                400                                 8.0788994554e-19                        28.1547801466                                  28.1547801466                                    28.1547801466                      -1.8199197532199999e-18                 7.1035324359799999e-19                  42                            6                           5                    -0.015084121476799999 -6.7158002753599997e-05  0.77919813100799995        5.3496611751899999e-14              6.0000000000000003e-12       
                    -2.98573776826e-19                        283                                     6276.2125726300001               3.12009121447e-09               2.2896251919600002e-22                400                                 8.1364581113799999e-19                     28.218424272699998                             28.218424272699998                               28.218424272699998                 -1.8276839308000001e-18                 7.1546434283399998e-19                  49                            6                           6                    -0.0157985510516     -0.0014010409757700001  0.77947456608999999        7.3517169904800004e-14              7.0000000000000001e-12       
                    -2.9543000082599998e-19                      332                                     6424.5377551000001               3.1451255403299998e-09             1.9894997154500001e-22                400                                 8.1935565209999997e-19                     28.455375704400002                             28.455375704400002                               28.455375704400002                 -1.8357437645399999e-18                 7.2095811161900004e-19                  56                            6                           7                    -0.016135021162699999 -0.0027496786441799999  0.77989421243400003        6.3339737179200005e-14              7.9999999999999998e-12       
                    -2.9226917094800002e-19                      375                                     6440.4613563800003               3.1621985970700002e-09             2.4858561267900002e-22                400                                 8.2509578032299997e-19                     28.6221356484                                  28.6221356484                                    28.6221356484                      -1.84389405805e-18                   7.2652910678200001e-19                  63                            6                           8                    -0.016184228122099999 -0.0040265925687199998  0.78045584701899995        7.8692718757799999e-14              8.9999999999999996e-12       
                    -2.8909330745700002e-19                      412                                     6344.0642243399998               3.1521752114e-09                1.72468311081e-22                  400                                 8.3096675711699996e-19                     28.710885338400001                             28.710885338400001                               28.710885338400001                 -1.85192321832e-18                   7.3186315374600003e-19                  70                            6                           9                    -0.016038329721699999 -0.0051726330213500002  0.78115213712300002        5.48852001845e-14                9.9999999999999994e-12       
                    -2.8590117271799999e-19                      449                                     6344.5238708099996               3.18006690645e-09               1.9225850696800001e-22                400                                 8.3705776606999998e-19                     28.7387065572                                  28.742692464699999                               28.742692464699999                 -1.85965386037e-18                   7.3669492158200004e-19                  77                            6                           10                   -0.0157815480076     -0.0061534360523799996  0.78197186827700005        6.0668813481899994e-14              1.1000000000000001e-11       
                    -2.8267594050399999e-19                      486                                     6325.168232                      3.2196661656400001e-09             1.55864165159e-22                  400                                 8.4344342696099997e-19                     28.71205007                                    28.7396389333                                    28.742692464699999                 -1.8669780813299998e-18                 7.4085871386700003e-19                  84                            6                           11                   -0.0154846624958     -0.0069551363368300003  0.78290166533600003        4.8549825063399999e-14              1.2000000000000001e-11       
                    -2.7940107375899998e-19                      523                                     6240.8105198800004               3.2792752921100002e-09             1.59155466685e-22                  400                                 8.5015954588400003e-19                     28.617382014099999                             28.71205007                                      28.742692464699999                 -1.87386774042e-18                   7.4430712078e-19                     91                            6                           12                   -0.0152027567484     -0.0075798519537799997  0.783927113846             4.8668899642399997e-14              1.3e-11                   
                    -2.76058590982e-19                        572                                     6059.5164189200004               3.3465897972100001e-09             1.5763328855100001e-22                400                                 8.5720848592399996e-19                     28.472175635799999                             28.617382014099999                               28.742692464699999                 -1.8803648168500001e-18                 7.4709773993900003e-19                  98                            6                           13                   -0.014975244745500001 -0.0080416380094800004  0.78503365918400003        4.7267906095300003e-14              1.4e-11                   
                    -2.7263654933099998e-19                      609                                     6016.2996105800003               3.4525483869299999e-09             2.6293923527499999e-22                400                                 8.6456016244000004e-19                     28.268114114500001                             28.472175635799999                               28.742692464699999                 -1.8865573182200002e-18                 7.49360606454e-19                    105                           6                           14                   -0.014827317858799999 -0.0083629617508899998  0.78620741822700002        7.6419218970999996e-14              1.5e-11                   
                    -2.6911834685499998e-19                      652                                     5958.0611165800001               3.5496002401100002e-09             1.8085502720699999e-22                400                                 8.7217749883800006e-19                     28.0073349221                                  28.268114114500001                               28.742692464699999                 -1.8925558281400002e-18                 7.5125998244799997e-19                  112                           6                           15                   -0.014772102912699999 -0.0085716081450499994  0.787435827182             5.1070391530999999e-14              1.6e-11                   
                    -2.6549882065200001e-19                      689                                     5851.9304685500001               3.6651801000900001e-09             2.8188625835199998e-22                400                                 8.8001140473400001e-19                     27.7069559386                                  28.0073349221                                    28.742692464699999                 -1.8984706416100001e-18                 7.5296041622599999e-19                  119                           6                           16                   -0.0148130350882     -0.0086979950641100003  0.78870817115199998        7.7089772811800002e-14              1.6999999999999999e-11       
                    -2.6176986652100001e-19                      726                                     5726.2986471499999               3.7595732114000004e-09             2.3575780181899999e-22                400                                 8.880207216159999e-19                     27.3660738538                                  27.7069559386                                    28.742692464699999                 -1.9043941126599999e-18                 7.5460352452599999e-19                  126                           6                           17                   -0.0149461589951     -0.0087728376969499998  0.79001586942400004        6.2908935821599999e-14              1.7999999999999999e-11       
                    -2.5793379797000002e-19                      763                                     5675.3953340899998               3.8584740846499997e-09             2.0256421471899999e-22                400                                 8.9616410298000005e-19                     26.9999548973                                  27.3660738538                                    28.742692464699999                 -1.9103933049599998e-18                 7.5629540400500004e-19                  133                           6                           18                   -0.015162240518100001 -0.0088251548250200002  0.79135254850799996        5.2668582498500001e-14              1.8999999999999999e-11       
                    -2.5399244966399999e-19                      806                                     5670.1361002499998               3.9463645088900002e-09             2.3576740469799999e-22                400                                 9.0441105191200009e-19                     26.618574986300001                             26.9999548973                                    28.742692464699999                 -1.9165071451799998e-18                 7.5810364360600003e-19                  140                           6                           19                   -0.0154486557581     -0.0088806523606700001  0.79271381791200002        6.00408894849e-14                1.9999999999999999e-11       
                    -2.49953833791e-19                        843                                     5656.3591865199996               4.0451011985799997e-09             2.8523277885700001e-22                400                                 9.1273391315299998e-19                     26.221237205400001                             26.618574986300001                               28.742692464699999                 -1.9227480943199999e-18                 7.6006034737599998e-19                  147                           6                           20                   -0.015791014950500001 -0.0089605093361200001  0.794096833487             7.0895964335699998e-14              2.0999999999999999e-11       
                    -2.4582466588200001e-19                      886                                     5690.52300242                    4.1414094641000003e-09             2.4221719376900001e-22                400                                 9.2111404834599997e-19                     25.828182629899999                             26.221237205400001                               28.742692464699999                 -1.9291074989100001e-18                 7.6216878468500001e-19                  154                           6                           21                   -0.016174495685600001 -0.0090806005374700002  0.79549968760900003        5.8685930773799999e-14              2.2000000000000002e-11       
                    -2.4161347649299999e-19                      923                                     5729.1063423200003               4.2350924292300003e-09             3.21043263992e-22                  400                                 9.2953589950900001e-19                     25.966305127599998                             25.966305127599998                               28.742692464699999                 -1.9355603566900001e-18                 7.6441098068500004e-19                  161                           6                           22                   -0.016584886369100001 -0.0092511568754000007  0.79692072269100001        7.5997494055299996e-14              2.3000000000000001e-11       
                    -2.3732432715400002e-19                      960                                     5743.7828568100003               4.2817359875300001e-09             2.6942395805199999e-22                400                                 9.37993561006e-19                       26.1819606213                                  26.1819606213                                    28.742692464699999                 -1.94207316684e-18                   7.6675527867799996e-19                  168                           6                           23                   -0.0170093291885     -0.0094768633990499999  0.79835786006200005        6.3188323957400002e-14              2.4000000000000001e-11       
                    -2.3297145708500002e-19                      1003                                    5723.3735942900003               4.3482121978099997e-09             3.04712039693e-22                  400                                 9.4647651356800009e-19                     26.368951696900002                             26.368951696900002                               28.742692464699999                 -1.94861068908e-18                   7.6916271842799999e-19                  175                           6                           24                   -0.017436832318899999 -0.0097573759445100001  0.79980807102499996        7.0377941694499999e-14              2.5000000000000001e-11       
                    -2.2855771904800002e-19                      1046                                    5820.6164134500004               4.4033766449900002e-09             2.2910927500700002e-22                400                                 9.54990578282e-19                       26.538571329300002                             26.538571329300002                               28.742692464699999                 -1.9551412986299999e-18                 7.7159300129999997e-19                  182                           6                           25                   -0.0178585910529     -0.010088191263699999  0.80126696986400003        5.2191739531699999e-14              2.6000000000000001e-11       
                    -2.2409026151900002e-19                      1083                                    5878.8400672899998               4.4761327220099997e-09             3.37494176186e-22                  400                                 9.6354305767299997e-19                     26.683350972500001                             26.683350972500001                               28.742692464699999                 -1.9616423622700001e-18                 7.7400904308199997e-19                  189                           6                           26                   -0.0182681551659     -0.010461780532599999  0.80272865748400002        7.5602280323899996e-14              2.7e-11                   
                    -2.19567288571e-19                        1126                                    5854.3580758500002               4.5261239291900004e-09             2.3511004375400001e-22                400                                 9.7215361145199999e-19                     26.810892129100001                             26.810892129100001                               28.742692464699999                 -1.96810186953e-18                   7.76380969509e-19                    196                           6                           27                   -0.018661468022699999 -0.0108688481904      0.80418570054299998        5.2044503649500001e-14              2.8e-11                   
                    -2.14992725732e-19                        1163                                    5769.2620812100004               4.5920939996500001e-09             3.5473321435500002e-22                400                                 9.8083786003900007e-19                     26.921927033399999                             26.921927033399999                               28.742692464699999                 -1.9745191680200001e-18                 7.7868858224700003e-19                  203                           6                           28                   -0.0190367927363     -0.0112995648745      0.80562929235699998        7.7374411208700003e-14              2.9e-11                   
                    -2.10360620608e-19                        1200                                    5848.5137518499996               4.6307439581400004e-09             2.8977179284200001e-22                400                                 9.8962035610500001e-19                     27.013787320199999                             27.013787320199999                               28.742692464699999                 -1.9809039805400001e-18                 7.8092300382700004e-19                  210                           6                           29                   -0.019394511803799998 -0.0117446476023      0.80704947246500003        6.2751282367399995e-14              3e-11                     
                    -2.0567105067399999e-19                      1237                                    5858.6404639499997               4.6779090382400003e-09             2.4328687307499998e-22                400                                 9.9851647543599997e-19                     27.093795828600001                             27.093795828600001                               28.742692464699999                 -1.9872739709100001e-18                 7.8308644479700004e-19                  217                           6                           30                   -0.019736819918300001 -0.0121961816633      0.80843543620900005        5.2169217478300001e-14              3.1000000000000003e-11       
                    -2.0092031686100001e-19                      1286                                    5794.1496367600002               4.7431989015900003e-09             2.6067037400100001e-22                400                                 1.00754132843e-18                       27.157308303600001                             27.157308303600001                               28.742692464699999                 -1.9936528530500001e-18                 7.8519120775499996e-19                  224                           6                           31                   -0.0200673286184     -0.0126481376486      0.80977583902700001        5.5138709224799999e-14              3.1999999999999999e-11       
                    -1.9610364955099999e-19                      1323                                    5684.5912694500003               4.8329176091599999e-09             3.6681167671100002e-22                400                                 1.01670662603e-18                       27.2087464602                                  27.2087464602                                    28.742692464699999                 -2.0000678695600001e-18                 7.8725759397599997e-19                  231                           6                           32                   -0.0203905976673     -0.0130966015301      0.811059118907             7.6111346794800006e-14              3.3000000000000002e-11       
                    -1.91211366378e-19                        1366                                    5732.6237305200002               4.9066965816900004e-09             2.5603498364000001e-22                400                                 1.02602454875e-18                       27.251238066199999                             27.251238066199999                               28.742692464699999                 -2.00654737212e-18                   7.8931145699999997e-19                  238                           6                           33                   -0.0207116464281     -0.0135397492264      0.81227379912200004        5.2283433502400001e-14              3.3999999999999999e-11       
                    -1.8624174134800001e-19                      1403                                    5717.8062345899998               5.0007097826300001e-09             3.8518749201599998e-22                400                                 1.03549609362e-18                       27.282257884300002                             27.282257884300002                               28.742692464699999                 -2.0131193810799999e-18                 7.9138154611200001e-19                  245                           6                           34                   -0.021035471766799999 -0.013977639168200001  0.81340879419699996        7.7164948580700002e-14              3.5000000000000002e-11       
                    -1.81185598976e-19                        1440                                    5650.6037100499998               5.0681363867299996e-09             3.2037230635799998e-22                400                                 1.04512629675e-18                       27.3070452047                                  27.3070452047                                    28.742692464699999                 -2.0198094508299999e-18                 7.9349755510700003e-19                  252                           6                           35                   -0.0213666119978     -0.014411881513500001  0.814453638885             6.3393560068399994e-14              3.5999999999999998e-11       
                    -1.76043272153e-19                        1477                                    5526.3456971699998               5.1466686472700004e-09             2.7725571272199998e-22                400                                 1.05490821233e-18                       27.325171106799999                             27.325171106799999                               28.742692464699999                 -2.02663963234e-18                   7.9568814785300003e-19                  259                           6                           36                   -0.021708794585999999 -0.014845243843000001  0.81539871498700001        5.4031947388600001e-14              3.7000000000000001e-11       
                    -1.70811276389e-19                        1520                                    5556.8780982099997               5.2191829839399996e-09             3.16262209383e-22                  400                                 1.06483658283e-18                       27.336733690399999                             27.336842345200001                               28.742692464699999                 -2.0336277990099998e-18                 7.9797993979599997e-19                  266                           6                           37                   -0.022064691605700001 -0.015281248638000001  0.81623538427499998        6.0877744472800001e-14              3.7999999999999998e-11       
                    -1.6549191761e-19                         1557                                    5545.9005967399999               5.3114417052699997e-09             3.7674412347699999e-22                400                                 1.0748982484900001e-18                     27.346716230199998                             27.346716230199998                               28.742692464699999                 -2.0407866587099999e-18                 8.0039649261099997e-19                  273                           6                           38                   -0.0224357774227     -0.015723793557200001  0.81695609142100001        7.1297966979599997e-14              3.9000000000000001e-11       
                    -1.6008570399000001e-19                      1600                                    5481.8070309599998               5.4120240891600001e-09             3.2506650617500002e-22                400                                 1.0850805593999999e-18                     27.350244645899998                             27.3507517689                                    28.742692464699999                 -2.04812427569e-18                   8.0295801230699999e-19                  280                           6                           39                   -0.022822287153800001 -0.016176822501800001  0.81755439699400001        6.0255013800599997e-14              3.9999999999999998e-11       