# ODT 1.0
# Table Start
# Title: mmArchive Data Table, Tue Oct 13 17:03:45 EDT 2020
# Columns: {Oxs_CGEvolve::Max mxHxm} {Oxs_CGEvolve::Total energy} {Oxs_CGEvolve::Delta E} {Oxs_CGEvolve::Bracket count} {Oxs_CGEvolve::Line min count} {Oxs_CGEvolve::Conjugate cycle count} {Oxs_CGEvolve::Cycle count} {Oxs_CGEvolve::Cycle sub count} {Oxs_CGEvolve::Energy calc count} Oxs_Exchange6Ngbr:MnTaS2:Energy {Oxs_Exchange6Ngbr:MnTaS2:Max Spin Ang} {Oxs_Exchange6Ngbr:MnTaS2:Stage Max Spin Ang} {Oxs_Exchange6Ngbr:MnTaS2:Run Max Spin Ang} My_Exchange6Ngbr:MnTaS2:Energy {My_Exchange6Ngbr:MnTaS2:Max Spin Ang} {My_Exchange6Ngbr:MnTaS2:Stage Max Spin Ang} {My_Exchange6Ngbr:MnTaS2:Run Max Spin Ang} Oxs_UniaxialAnisotropy:Anisotropy:Energy Oxs_UZeeman::Energy  Oxs_UZeeman::B       Oxs_UZeeman::Bx      Oxs_UZeeman::By      Oxs_UZeeman::Bz      Oxs_Demag::Energy    Oxs_MinDriver::Iteration {Oxs_MinDriver::Stage iteration} Oxs_MinDriver::Stage Oxs_MinDriver::mx    Oxs_MinDriver::my    Oxs_MinDriver::mz   
# Units:              A/m                         J                          J                         {}                             {}                                {}                               {}                            {}                               {}                                J                                  deg                                        deg                                          deg                                   J                                 deg                                       deg                                         deg                                        J                              J                 mT                   mT                   mT                   mT                     J                       {}                           {}                         {}                 {}                   {}                   {}           
              0.008805208316853096        -4.6306316541520287e-15       0                          42                             34                                2                                36                            34                               77                               9.2122806838434155e-19                 3.9675196441779019                         5.1624891335298759                           5.1624891335298759                   -4.8349308126626541e-19                7.4964704712971733                        7.9988975870341434                          7.9988975870341434                        4.7289308166190219e-20           -5.0277679226958821e-15  1000.0499987500625   1000                 10                   0                    3.9665124424856943e-16    71                           71                         0                    0.99747189851015294  0.010110202474410787  2.653414701362924e-18
              0.0088120343473341804        -4.1279709127715521e-15      -7.8886090522101181e-31        76                             68                                3                                69                            32                               146                              1.0915765596316301e-18                 4.1847778232162405                         4.466753061229447                            5.1624891335298759                   -5.6292147155962698e-19                7.9908374643765292                        8.4471258774473359                          8.4471258774473359                        5.6219374314595179e-20           -4.5228003232692557e-15  900.04499887505642   900.00000000000011   9                    0                    3.9424453603531766e-16    139                          67                         1                    0.99698859221291802  0.010142614450135591  1.4407550989990196e-18
              0.0080739530432517321        -3.6255927386789389e-15       0                          115                            107                               4                                107                           37                               225                              1.3175346896740167e-18                 4.4192010140454556                         4.7742858987704508                           5.1624891335298759                   -6.6518617879574424e-19                8.5442475248835041                        9.1269564827320373                          9.1269564827320373                        6.8182885181381485e-20           -4.0176468165416589e-15  800.03999900004999   800                  8                    0                    3.9133354646666035e-16    217                          77                         2                    0.99633828373928635  0.010189893473602574 -2.3300388073992161e-18
              0.0091641090552761137        -3.1236025894435806e-15      -3.944304526105059e-31        159                            150                               5                                150                           42                               313                              1.6283197451109336e-18                 4.6690033144274565                         5.1031649019843242                           5.1624891335298759                   -8.0114866090871611e-19                9.1637856920902507                        9.8814077413050825                          9.8814077413050825                        8.4851847096745535e-20           -3.5122282572044322e-15  700.03499912504378   700                  7.0000000000000009   0                    3.8771364482955282e-16    304                          86                         3                    0.99542692596938642  0.010262539241410245 -1.3570238407405596e-19
              0.0089803727490735657        -2.6221717611207988e-15       0                          214                            203                               6                                204                           53                               422                              2.0779928463584044e-18                 4.9315211140500308                         5.5024913579889958                           5.5024913579889958                   -9.910430656067001e-19                9.8577973021722745                        10.822088234874679                          10.822088234874679                        1.0937049295382278e-19           -3.0063985611726275e-15  600.02999925003746   600                  6                    0                    3.830304797781234e-16    412                          107                        4                    0.9940756014207397   0.010381695645179979  5.1971125815595896e-19
              0.0095529636617510735        -2.1216057378155579e-15      -3.944304526105059e-31        283                            271                               7                                272                           67                               560                              2.7845511624881713e-18                 5.5189419159802195                         5.9603061725645485                           5.9603061725645485                   -1.284444626394381e-18                10.952333165130788                        11.861533818674152                          11.861533818674152                        1.4843982300706622e-19           -2.4998466560454912e-15  500.02499937503126   500                  5                    0                    3.7659237187083268e-16    549                          136                        5                    0.99189672734588663  0.010591394200743145 -2.2232092710004911e-18
              0.0097419734112253933        -1.6225286042791882e-15       0                          383                            370                               8                                371                           98                               760                              4.1051186012239359e-18                 7.0039771053427629                         7.351238480615268                            7.351238480615268                    -1.8963517512695648e-18                13.814465990955419                        14.49676137575192                           14.49676137575192                         2.1855009660311132e-19           -1.9918401308911233e-15  400.01999950002494   399.99999999999994   3.9999999999999991   0                    3.6688420966537786e-16    748                          198                        6                    0.98790635041738117  0.010958752464404179  3.6495279461618455e-18
              0.0099133832248058905        -1.1266006936775227e-15       0                          1005                           932                               11                               976                           299                              1945                             1.0492960430588574e-17                 27.556786606471814                         28.58939163399107                            28.58939163399107                    -7.1348739109206811e-18                50.477815619617651                        53.178835123843221                          53.178835123843221                        3.8111520569441487e-19           -1.4792906503647747e-15  300.01499962501867   299.99999999999994   2.9999999999999991   0                    3.4895075496188973e-16    1911                         1162                       7                    0.97825328841054215  0.011354384129314386  1.5750894875502184e-11
              0.0099305807904018686        -6.3884317892384952e-16       0                          1351                           1275                              13                               1321                          343                              2635                             2.5142305854576992e-17                 37.1088019602701                           41.069557130088299                           41.069557130088299                   -2.1386333417130624e-17                69.50594812167337                         74.895274396126851                          74.895274396126851                        7.975305816938964e-19           -9.5920233787420116e-16  200.00999975001247   199.99999999999997   1.9999999999999996   0                    3.1580565593121119e-16    2600                         688                        8                    0.95147649438687631  0.011312652006924448  6.5987160991108603e-16
              0.0094509592199770367        -1.9352995643823088e-16       0                          7485                           3767                              17                               6461                          137                              11262                            2.7399152767479132e-16                 45.165812737996688                         50.926423032851531                           50.926423032851531                   -2.8713419960423107e-16                86.161754230204437                        91.166949691421181                          91.166949691421181                        3.6908533318687839e-18           -3.7315589967278166e-16  100.00499987500623   99.999999999999986   0.99999999999999978  0                    1.8907776183212173e-16    10236                        7635                       9                    0.74029054886123791  0.0098140965709795323 -2.6239643967340863e-17
              0.0091469429786016042        -7.9243634423975856e-18       0                          8436                           4531                              65                               7331                          320                              12978                            3.8892974271370926e-16                 48.728007214819414                         61.433713313388687                           61.433713313388687                   -4.1557578742258016e-16                94.213224849231096                        110.74769066072851                          110.74769066072851                        4.8927711059250601e-18            0                    0                    0                    0                    0                    1.3828910160548301e-17    11874                        1637                       10                  -0.0070241344597535412  0.0063188913933280204 -4.7992830652566184e-11
              0.0095139790108708742        -1.1454357599753013e-16       0                          9047                           5072                              92                               7905                          435                              14131                            6.9625324217276298e-16                 58.801310037325152                         60.460644642152722                           61.433713313388687                   -7.2466247704437235e-16                107.99929580571695                        114.56902129086262                          114.56902129086262                        3.557779525779934e-18           -1.5556340158551407e-16  83.337499895838548  -83.333333333333343  -0.83333333333333326  0                    6.5871280933813372e-17    12988                        1113                       11                  -0.37047931501767256  0.0090263623591591031 -1.9181179740126169e-14
              0.0094873915865570438        -4.8063681504035392e-16       0                          10135                          5974                              188                              8919                          691                              16122                            3.7169209255780717e-17                 39.354251763222194                         167.13289768852258                           167.13289768852258                   -3.413344187479814e-17                73.87768097170769                         172.3271806695175                           172.3271806695175                         1.1230956711614248e-18           -7.8105093191117112e-16  166.6749997916771   -166.66666666666669  -1.6666666666666665   0                    2.9625525381867322e-16    14916                        1927                       12                  -0.92971358300223494 -0.010895498725425386  1.6073814578472622e-14
              0.0097337920145879053        -8.8111620706207383e-16      -9.8607613152626476e-32        10380                          6216                              191                              9163                          241                              16610                            1.6362917255872181e-17                 33.858301265366336                         39.354251763222194                           167.13289768852258                   -1.2542438194463529e-17                63.000977121876687                        73.87768097170769                           172.3271806695175                         5.2765166112004151e-19           -1.2211125469305233e-15  250.01249968751563  -250                 -2.5                  0                    3.3564820914592088e-16    15404                        487                        13                  -0.96902147695981622 -0.011546504853570659  1.8155246618248168e-16
              0.00896034805343442        -1.2913385569950279e-15       0                          10551                          6386                              192                              9333                          169                              16952                            7.315412047438162e-18                 20.212667459234567                         33.858301265366336                           167.13289768852258                   -4.3520227469258149e-18                36.8347687468545                          63.000977121876687                          172.3271806695175                         3.1077686779233327e-19           -1.6508055395375059e-15  333.34999958335419  -333.33333333333337  -3.333333333333333    0                    3.5619281637417332e-16    15745                        340                        14                  -0.98250994119710311 -0.011240376569764444 -4.6889504624737632e-18
              0.0083077141845267558        -1.7055592172950218e-15       0                          10675                          6509                              193                              9456                          122                              17200                            3.8065696095760366e-18                 6.5105687426240131                         20.212667459234567                           167.13289768852258                   -1.7449819288570676e-18                12.914523029004439                        36.8347687468545                            172.3271806695175                         2.0341910004690389e-19           -2.0766599812156304e-15  416.6874994791927   -416.66666666666663  -4.1666666666666661   0                    3.6883575713984286e-16    15992                        246                        15                  -0.9887768501045906  -0.010885523618612352 -4.9961575617392856e-17
              0.009174719697604904        -2.1216057378155575e-15       0                          10746                          6579                              194                              9526                          69                               17342                            2.7845511531361309e-18                 5.5189414405311048                         6.6803797926918635                           167.13289768852258                   -1.2844446321109997e-18                10.952331993833848                        12.914523029004439                          172.3271806695175                         1.4843982353364339e-19           -2.4998466559836401e-15  500.02499937503126  -500                 -5                    0                    3.7659237182352351e-16    16133                        140                        16                  -0.9918967273192969  -0.010591394405212099 -6.5945584090456132e-18
              0.0095901697613974823        -2.5386726931256182e-15      -3.944304526105059e-31        10803                          6634                              195                              9582                          55                               17455                            2.1730086192286005e-18                 5.0068148261987373                         5.910186203745269                            167.13289768852258                   -1.0305181443248651e-18                9.9817059364299592                        10.952331993833848                          172.3271806695175                         1.1460120255622615e-19           -2.9220359550088127e-15  583.36249927086965  -583.33333333333326  -5.8333333333333321   0                    3.8210617020573459e-16    16245                        111                        17                  -0.99378569384994964 -0.010408676529255707  3.8805107275644939e-18
              0.0085297512684362545        -2.9563855190498864e-15       3.944304526105059e-31        10851                          6681                              196                              9629                          46                               17551                            1.7589222521082626e-18                 4.7551746342821586                         5.3791846010800057                           167.13289768852258                   -8.5698045323724713e-19                9.3863807796220033                        10.001695543535817                          172.3271806695175                         9.1927548761866226e-20           -3.3436744685423824e-15  666.69999916670838  -666.66666666666674  -6.6666666666666661   0                    3.862950801448628e-16    16340                        94                         18                  -0.99503825540051227 -0.010295547519643386 -2.3444752312368816e-18
              0.0096699274702556452        -3.374540514283404e-15       0                          10893                          6721                              197                              9670                          40                               17634                            1.45977154295161e-18                 4.5423733959265125                         4.9795362401218073                           167.13289768852258                   -7.2801256463654014e-19                8.8452610784574439                        9.3863807796220033                          172.3271806695175                         7.5781522533805743e-20           -3.7649775574554277e-15  750.03749906254689  -750                 -7.5000000000000009   0                    3.8962950267117461e-16    16422                        81                         19                  -0.99592358807501391 -0.010222077562866678 -1.0913936421275138e-18
              0.009244606752197404        -3.7930151997696119e-15       0                          10931                          6758                              198                              9707                          36                               17710                            1.2345697222196582e-18                 4.3392612525265646                         4.6580213916272166                           167.13289768852258                   -6.2801160083452774e-19                8.3527655704549701                        8.8452610784574439                          172.3271806695175                         6.3774763552591665e-20           -4.1860559647260917e-15  833.37499895838539  -833.33333333333326  -8.3333333333333321   0                    3.923704320715424e-16    16497                        74                         20                  -0.9965782718291808  -0.010171977226945522 -2.6563019861304572e-18
              0.0069517185131156029        -4.2117302964110192e-15       0                          10965                          6792                              199                              9740                          32                               17779                            1.0598983175204647e-18                 4.1473387268694086                         4.387644704849385                            167.13289768852258                   -5.4831390081335245e-19                7.9045232170490722                        8.3527655704549701                          172.3271806695175                         5.4552862496281192e-20           -4.6069729296110429e-15  916.71249885422401  -916.66666666666674  -9.1666666666666661   0                    3.946764959208203e-16    16565                        67                         21                  -0.99707892405943244 -0.010136373516552867 -2.1568017213472298e-18
              0.009997152131919939        -4.6306316541520287e-15       0                          10997                          6823                              200                              9771                          30                               17843                            9.2122807213869623e-19                 3.9675196048418315                         4.1535713045104021                           167.13289768852258                   -4.8349308419450987e-19                7.4964704454713269                        7.9045232170490722                          172.3271806695175                         4.728930824215861e-20           -5.0277679226833187e-15  1000.0499987500625  -1000                -10                   0                    3.9665124423510392e-16    16628                        62                         22                  -0.99747189850595885 -0.010110202644581389  3.3492503303384023e-19
              0.0090415781989940883        -4.1279709127715521e-15       0                          11031                          6856                              201                              9804                          32                               17911                            1.0915765596938251e-18                 4.1847778242872335                         4.4563265008502722                           167.13289768852258                   -5.6292147158466735e-19                7.9908374649077389                        8.4272607007036662                          172.3271806695175                         5.6219374314561547e-20           -4.5228003232692605e-15  900.04499887505642  -900.00000000000011  -9                    0                    3.9424453603528492e-16    16695                        66                         23                  -0.99698859221292035 -0.010142614450007394  5.1942252967920566e-18
              0.0085248221828640742        -3.6255927386789389e-15       0                          11070                          6895                              202                              9842                          37                               17990                            1.3175346896067105e-18                 4.4192010134621                            4.7735900264357412                           167.13289768852258                   -6.6518617878049059e-19                8.5442475244536151                        9.1256143341044353                          172.3271806695175                         6.8182885181422941e-20           -4.0176468165416558e-15  800.03999900004999  -800                 -8                    0                    3.9133354646670876e-16    16773                        77                         24                  -0.99633828373928712 -0.010189893473421703  5.9478066211181976e-19
              0.0087728636937729424        -3.1236025894435806e-15       0                          11115                          6939                              203                              9886                          43                               18080                            1.6283197415457661e-18                 4.6690032834067239                         5.1025788585143239                           167.13289768852258                   -8.0114865972670751e-19                9.1637856193038125                        9.8802607037495243                          172.3271806695175                         8.4851847099460579e-20           -3.5122282572060134e-15  700.03499912504378  -700                 -7.0000000000000009   0                    3.8771364483351438e-16    16862                        88                         25                  -0.99542692596929938 -0.010262539294910854 -2.7053858271785197e-18
              0.0081274383714083857        -2.6221717611207984e-15       0                          11170                          6994                              204                              9940                          53                               18191                            2.0779928478616652e-18                 4.9315211094604141                         5.496702010697347                            167.13289768852258                   -9.9104306598904399e-19                9.8577973038984634                        10.810549359220316                          172.3271806695175                         1.0937049295009369e-19           -3.0063985611725139e-15  600.02999925003746  -600                 -6                    0                    3.8303047977689278e-16    16972                        109                        26                  -0.9940756014208445  -0.01038169563092492 -2.4888394696135369e-18
              0.0095625851294908071        -2.1216057378155575e-15       3.944304526105059e-31        11239                          7063                              205                              10008                         67                               18330                            2.7845511623325392e-18                 5.5189419184094737                         5.9784816192950707                           167.13289768852258                   -1.2844446263141973e-18                10.952333166922285                        11.92373843352302                           172.3271806695175                         1.4843982300302109e-19           -2.4998466560461088e-15  500.02499937503126  -500                 -5                    0                    3.7659237187152979e-16    17110                        137                        27                  -0.99189672734609935 -0.010591394203899819 -2.6620765556655231e-18
              0.0083556356803254749        -1.6225286042791882e-15       0                          11340                          7163                              206                              10108                         99                               18532                            4.1051185855176952e-18                 7.0039769607617748                         7.3512397258161419                           167.13289768852258                   -1.8963517358848231e-18                13.814465776452515                        14.49676335434922                           172.3271806695175                         2.1855009649945815e-19           -1.9918401309016724e-15  400.01999950002494  -399.99999999999994  -3.9999999999999996   0                    3.6688420967635191e-16    17311                        200                        28                  -0.98790635042284403 -0.010958752441387228 -8.5463629118979917e-18