# ODT 1.0
# Table Start
# Title: mmArchive Data Table, Mon Jan 24 18:02:00 CET 2022
# Columns: {Oxs_CGEvolve:evolver:Max mxHxm} {Oxs_CGEvolve:evolver:Total energy} {Oxs_CGEvolve:evolver:Delta E} {Oxs_CGEvolve:evolver:Bracket count} {Oxs_CGEvolve:evolver:Line min count} {Oxs_CGEvolve:evolver:Conjugate cycle count} {Oxs_CGEvolve:evolver:Cycle count} {Oxs_CGEvolve:evolver:Cycle sub count} {Oxs_CGEvolve:evolver:Energy calc count} Oxs_UniformExchange:exchange:Energy {Oxs_UniformExchange:exchange:Max Spin Ang} {Oxs_UniformExchange:exchange:Stage Max Spin Ang} {Oxs_UniformExchange:exchange:Run Max Spin Ang} Oxs_UniaxialAnisotropy:uniaxialanisotropy:Energy Oxs_DMI_T:dmi:Energy Oxs_Demag:demag:Energy Oxs_FixedZeeman:zeeman:Energy Oxs_UZeeman:hysteresis:Energy Oxs_UZeeman:hysteresis:B Oxs_UZeeman:hysteresis:Bx Oxs_UZeeman:hysteresis:By Oxs_UZeeman:hysteresis:Bz Oxs_MinDriver::Iteration {Oxs_MinDriver::Stage iteration} Oxs_MinDriver::Stage Oxs_MinDriver::mx    Oxs_MinDriver::my    Oxs_MinDriver::mz   
# Units:                 A/m                                 J                                J                                 {}                                   {}                                        {}                                      {}                                   {}                                      {}                                     J                                      deg                                            deg                                              deg                                              J                                  J                     J                          J                             J                          mT                       mT                        mT                        mT                        {}                           {}                         {}                 {}                   {}                   {}           
                  0.070189127285699995              -4.1459319785299998e-16              -9.8607613152600004e-32               12                                   9                                         2                                       10                                   8                                       22                                    1.9253616970399999e-19                     13.900258074                                   16.397694576300001                               16.397694576300001                               1.2085614174200001e-18               -4.0013764432300002e-18   1.09219650816e-16         5.2647734324499999e-18          -5.2647734324499996e-16         1000                     0                         0                        -1000                      21                           21                         0                   -1.7707586239100001e-18  4.2718690537799999e-19 -0.99711618038899996
                  0.0559183912297                  -3.6195598966500001e-16              -3.4512664603399999e-31               22                                   17                                        3                                       19                                   8                                       41                                    2.1613025410499999e-19                     14.772592965199999                             14.812625329399999                               16.397694576300001                               1.3802161560699999e-18               -4.2839665922499996e-18   1.09102352891e-16         5.2625923862300001e-18          -4.7363331475999998e-16         900                      0                         0                        -900                       39                           17                         1                   -1.02662659518e-18    1.08863759758e-18   -0.99670310345199997
                  0.099142074729600002              -3.0934311216700001e-16              -1.0353799381e-30                  31                                   25                                        4                                       28                                   8                                       59                                    2.4462189243300001e-19                     15.769050267000001                             15.933375417600001                               16.397694576300001                               1.5931505169900001e-18               -4.6116610241699998e-18   1.0896134865e-16          5.2598806607900003e-18          -4.2079045286300001e-16         800                      0                         0                        -800                       57                           17                         2                   -5.5120891016500002e-20  1.6742970646299999e-18 -0.996189519089     
                  0.0462048087604                  -2.5676079234299998e-16              -2.9582283945799998e-31               41                                   34                                        5                                       38                                   9                                       79                                    2.7957824828700002e-19                     16.920718498199999                             17.0771695848                                    17.0771695848                                    1.86249903752e-18                 -4.99688236046e-18     1.08788423478e-16         5.2564407354599998e-18          -3.6795085148199999e-16         700                      0                         0                        -700                       77                           19                         3                   -5.3742868741099997e-19 -6.4767046944400004e-19 -0.995538018079     
                  0.057026676901699998              -2.0421772070700001e-16              -4.9303806576300002e-32               51                                   44                                        6                                       48                                   9                                       100                                   3.2331392050300002e-19                     18.2713191096                                  18.3985085393                                    18.3985085393                                    2.2114663295499998e-18               -5.4574270971700003e-18   1.08571026085e-16         5.2519677956699999e-18          -3.1511806774000002e-16         600                      0                         0                        -600                       98                           20                         4                   -2.54934120952e-18    5.6498913291999997e-19 -0.99469087039199999
                  0.073437311880499997              -1.5172649426399999e-16              -8.1351280850899992e-31               63                                   54                                        7                                       59                                   10                                      123                                   3.7942096078300001e-19                     19.885283069                                   19.973557560100001                               19.973557560100001                               2.6774847168199999e-18               -6.0199959520000002e-18   1.0828893152799999e-16       5.2459660309699998e-18          -2.6229830154899998e-16         500                      0                         0                        -500                       120                          21                         5                    1.21265960236e-18   -4.6163746226399995e-19 -0.99355417253300005
                  0.0805008286888                  -9.93062991829e-17                -8.0118685686500008e-31               76                                   65                                        8                                       71                                   11                                      148                                   4.5386770975199999e-19                     21.863941501300001                             21.976819372400001                               21.976819372400001                               3.3251535931399999e-18               -6.7272486601499998e-18   1.07907170585e-16         5.2375703182300003e-18          -2.09502812729e-16           400                      0                         0                        -400                       144                          23                         6                   -1.0335167065599999e-18 -5.7463528884699997e-18 -0.99196407542300002
                  0.0873959748915                  -4.6988430397400002e-17              -1.42981039071e-30                 90                                   77                                        9                                       84                                   12                                      175                                   5.5762954851799997e-19                     24.382800841200002                             24.534399601899999                               24.534399601899999                               4.2771741560399999e-18               -7.6539145443199995e-18   1.07358929388e-16         5.2251120326100002e-18          -1.5675336097799999e-16         300                      0                         0                        -300                       169                          24                         7                   -3.0178687831599998e-18 -2.3908686478400002e-18 -0.98960455163100003
                  0.096137390328499994               5.17044304256e-18                -1.3835880720500001e-30               106                                  91                                        10                                      99                                   14                                      206                                   7.1463641586400003e-19                     27.798908077                                   28.006462306700001                               28.006462306700001                               5.8051793148999998e-18               -8.9524564750699997e-18   1.0649448318e-16          5.2048104943700004e-18          -1.04096209887e-16           200                      0                         0                        -200                       198                          28                         8                   -6.2286606848699998e-18 -3.9755942645699997e-18 -0.98575956332799997
                  0.079598639318299996               5.7045458262299997e-17              -4.9303806576300004e-31               128                                  111                                       11                                      120                                  20                                      249                                   1.00102239443e-18                       33.134689562600002                             34.510974215099999                               34.510974215099999                               8.7395324124200005e-18               -1.1057436664500001e-17   1.04843806985e-16         5.1646074294800001e-18          -5.1646074294800003e-17         100                      0                         0                        -100                       240                          41                         9                   -1.0472969293099999e-18  1.4193629436799999e-18 -0.978145346493     
                  0.073010095317300003               1.44523246668e-17                -5.8548270309399996e-32               1015                                 453                                       349                                     824                                  39                                      1479                                  2.6380762552500001e-17                     142.75442788399999                             152.918418108                                    152.918418108                                    3.6693226759099998e-17               -6.3776302534700005e-17   1.5414612065500001e-17      -2.5997417561899999e-19           0                           0                        0                         0                         0                         1375                         1134                       10                  -7.44132028723e-19    3.3072534609899999e-19  0.049237533261100003
                  0.097589029002000005               8.3970147388000004e-18              -1.34044724129e-31                 1191                                 551                                       382                                     962                                  46                                      1754                                  2.8128411516800003e-17                     145.85592176899999                             150.53846763199999                               152.918418108                                    3.6194089220999997e-17               -6.4350796435200005e-17   1.8001335649099999e-17      -8.7054774662699996e-19          -8.7054774662699993e-18         100                      0                         0                         100                       1623                         247                        11                  -2.5631214322699998e-18 -3.8253898365499999e-17  0.16487646716400001
                  0.095129110148099993              -9.1761450888299993e-18              -1.2325951644099999e-32               2111                                 1354                                      455                                     1842                                 749                                     3478                                  3.0642603325699998e-17                     172.48970313000001                             173.78051601799999                               173.78051601799999                               3.18396171367e-17                 -5.8634312038700006e-17   2.8594165914499998e-17      -1.98181997272e-18            -3.9636399454399999e-17         200                      0                         0                         200                       3322                         1698                       12                  -9.3705514728100009e-19  2.92140722388e-18    0.37534469180300001
                  0.089888965207999993              -3.8210431064399997e-17              -1.4174844390700001e-31               2301                                 1415                                      553                                     2001                                 42                                      3730                                  2.9921850488699997e-17                     177.706556672                                  177.86622795100001                               177.86622795100001                               2.4981074617799999e-17               -4.8918623695800002e-17   3.9226767939800001e-17      -2.6910161424199999e-18          -8.0730484272500006e-17         300                      0                         0                         300                       3565                         242                        13                  -4.9608801914899998e-19 -4.2443086082700001e-18  0.509662148185     
                  0.094459424170500003              -8.0554047972799995e-17              -7.3955709864499996e-32               2558                                 1475                                      698                                     2211                                 29                                      4048                                  2.49313586309e-17                       172.042131047                                  179.023040971                                    179.023040971                                    1.6573431767899999e-17               -3.3751128034699998e-17   5.85164836466e-17        -3.5810779020400002e-18          -1.43243116081e-16           400                      0                         0                         400                       3869                         303                        14                   1.1644288227200001e-18 -1.0472969293099999e-18  0.67823445114299996
                  0.068086486095600002              -1.5233059492000001e-16              -9.8607613152600004e-32               2965                                 1509                                      1004                                    2551                                 14                                      4490                                  8.8270518790899996e-18                     178.070652663                                  179.413884018                                    179.413884018                                    6.3852894318300001e-18               -1.5188146762e-17      9.4643948996800003e-17      -4.8431125189399996e-18          -2.4215562594699998e-16         500                      0                         0                         500                       4301                         431                        15                  -2.2165763904499999e-15  6.1437745126999999e-16  0.91725615889099998
                  0.088089499955399997              -2.05938340983e-16                -5.6699377562800003e-31               3103                                 1532                                      1095                                    2665                                 15                                      4652                                  5.7322218370000002e-18                     177.407953228                                  179.55021234500001                               179.55021234500001                               3.6446630262099998e-18               -9.2744586528500007e-18   1.01620321799e-16        -5.0436244097200003e-18          -3.0261746458299998e-16         600                      0                         0                         600                       4457                         155                        16                  -2.1497147496499999e-18 -4.9608801914899998e-19  0.95523189578099998
                  0.081017398571299998              -2.6086639409100001e-16              -2.4651903288199998e-31               3193                                 1565                                      1135                                    2738                                 24                                      4776                                  3.9128161183100001e-18                     179.426687593                                  179.468154312                                    179.55021234500001                               2.4230808612700001e-18               -7.0955076944700003e-18   1.0549977752800001e-16      -5.1493881817499998e-18          -3.6045717272200001e-16         700                      0                         0                         700                       4569                         111                        17                   9.5221339231100002e-18  6.2321057405599997e-18  0.97526291320900005
                  0.071426570604799997              -3.12383070332e-16                -1.4791141972899999e-31               3226                                 1591                                      1136                                    2765                                 26                                      4836                                  3.86038400279e-18                       179.24347964399999                             179.426687593                                    179.55021234500001                               2.0921977270399998e-18               -6.5696047174599996e-18   1.05692807746e-16        -5.1538130258000003e-18          -4.1230504206400002e-16         800                      0                         0                         800                       4622                         52                         18                   2.7560445508300003e-20 -1.9223410742e-18     0.97610095185699997
                  0.069295652626900003              -3.72481651501e-16                -1.97215226305e-31                 3312                                 1605                                      1192                                    2835                                 8                                       4937                                  2.11060321895e-19                       14.589026298                                   179.437057063                                    179.55021234500001                               1.3429673225200001e-18               -4.2241683910499999e-18   1.0912749968e-16         -5.2630660487300002e-18          -4.7367594438599995e-16         900                      0                         0                         900                       4720                         97                         19                  -3.3072534609899999e-19  3.4450556885299999e-20  0.99679281226000005
                  0.065959287244599998              -4.25123132357e-16                -1.4791141972899999e-31               3320                                 1613                                      1193                                    2843                                 7                                       4954                                  1.8830198930699999e-19                     13.7385600956                                  14.589026298                                     179.55021234500001                               1.1782176397199999e-18               -3.94943426599e-18     1.09240792438e-16        -5.2651585164200001e-18          -5.2651585164199995e-16         1000                     0                         0                         1000                      4737                         16                         20                   7.1657158321500003e-19 -9.9906614967499992e-19  0.99718911295799995
                  0.096305948642200004              -3.72481651501e-16                -2.4651903288199998e-31               3329                                 1621                                      1194                                    2851                                 7                                       4972                                  2.11060318739e-19                       14.589024655799999                             14.627609856099999                               179.55021234500001                               1.3429673005600001e-18               -4.2241683767900002e-18   1.09127499717e-16        -5.2630660490199998e-18          -4.7367594441200002e-16         900                      0                         0                         900                       4754                         16                         21                   1.5158245029499999e-19 -2.06703341312e-19    0.99679281231399997
                  0.088116941543600003              -3.19863471221e-16                -8.3816471179699994e-31               3339                                 1629                                      1195                                    2860                                 8                                       4991                                  2.3846501879399998e-19                     15.5584831192                                  15.6050132241                                    179.55021234500001                               1.5466248619200001e-18               -4.5419793886699996e-18   1.08991791974e-16        -5.2604737492300001e-18          -4.20837899938e-16           800                      0                         0                         800                       4772                         17                         22                  -5.0986824190300001e-19 -2.5631214322699998e-18  0.99630184644499997
                  0.093248528597900004              -2.6727443918499998e-16              -1.97215226305e-31                 3348                                 1638                                      1196                                    2869                                 8                                       5010                                  2.7197268333900002e-19                     16.676100578700002                             16.834844459500001                               179.55021234500001                               1.8031556956699999e-18               -4.9144809152900001e-18   1.08826082184e-16        -5.2571995610199998e-18          -3.6800396927100002e-16         700                      0                         0                         700                       4791                         18                         23                   4.1202866034899996e-18  1.56405528259e-18    0.99568173504199997
                  0.085887404793900002              -2.1472266316500001e-16              -9.6142422823800006e-31               3359                                 1647                                      1197                                    2879                                 9                                       5031                                  3.1371674567900002e-19                     17.982584767700001                             18.051709603700001                               179.55021234500001                               2.1337856752299998e-18               -5.35818028705e-18     1.08618883286e-16        -5.25296505876e-18            -3.15177903526e-16           600                      0                         0                         600                       4811                         19                         24                   1.8741102945599999e-18  4.4096712813200002e-19  0.994879745978     
                  0.060771164650999999              -1.62219797756e-16                -5.42341872339e-31                 3370                                 1657                                      1198                                    2890                                 10                                      5053                                  3.6697150600500002e-19                     19.537289795300001                             19.633978620600001                               179.55021234500001                               2.5723718844700001e-18               -5.8975899759e-18      1.08351902103e-16        -5.2473226132099997e-18          -2.6236613066e-16            500                      0                         0                         500                       4833                         21                         25                  -2.94896766938e-18   -2.4253192047300001e-18  0.99381110098600001
                  0.063193582444100005              -1.09783397683e-16                -4.9303806576300004e-31               3383                                 1668                                      1199                                    2902                                 11                                      5078                                  4.3709272892e-19                        21.432182299899999                             21.535778910200001                               179.55021234500001                               3.1764587705900001e-18               -6.5713148079200003e-18   1.07994008736e-16        -5.2395034905099998e-18          -2.0958013962e-16            400                      0                         0                         400                       4857                         23                         26                   7.3310785052e-18    -5.1606934214199997e-18  0.99233020653600001
                  0.064888898517399998              -5.7441647633300004e-17              -7.8886090522099998e-31               3397                                 1680                                      1200                                    2915                                 12                                      5105                                  5.3369461721799996e-19                     23.8229356712                                  23.964908658300001                               179.55021234500001                               4.0529262248000003e-18               -7.4455247270500002e-18   1.07487096224e-16        -5.2280593539400003e-18          -1.5684178061799999e-16         300                      0                         0                         300                       4882                         24                         27                  -2.8249456645999998e-18  6.7523091495300004e-19  0.99016275642899998
                  0.058040626270700002              -5.24430861943e-18                -5.4388261629499998e-31               3413                                 1694                                      1201                                    2930                                 14                                      5136                                  6.7685678595099999e-19                     27.013715705900001                             27.209623299299999                               179.55021234500001                               5.4295593606900004e-18               -8.6501418155299997e-18   1.06706003776e-16        -5.2098374631700002e-18          -1.04196749263e-16           200                      0                         0                         200                       4911                         28                         28                   3.8309019256499998e-18 -1.9636817424599999e-18  0.98671164075200002