# ODT 1.0
# Table Start
# Title: mmArchive Data Table, Tue Jun 30 11:50:57 BST 2020
# Columns: {Oxs_CGEvolve:evolver:Max mxHxm} {Oxs_CGEvolve:evolver:Total energy} {Oxs_CGEvolve:evolver:Delta E} {Oxs_CGEvolve:evolver:Bracket count} {Oxs_CGEvolve:evolver:Line min count} {Oxs_CGEvolve:evolver:Conjugate cycle count} {Oxs_CGEvolve:evolver:Cycle count} {Oxs_CGEvolve:evolver:Cycle sub count} {Oxs_CGEvolve:evolver:Energy calc count} Oxs_FixedZeeman:zeeman:Energy Oxs_FixedZeeman:z2:Energy Oxs_MinDriver::Iteration {Oxs_MinDriver::Stage iteration} Oxs_MinDriver::Stage Oxs_MinDriver::mx    Oxs_MinDriver::my    Oxs_MinDriver::mz   
# Units:                 A/m                                 J                                J                                 {}                                   {}                                        {}                                      {}                                   {}                                      {}                                  J                           J                        {}                           {}                         {}                 {}                   {}                   {}           
                  0.067487178277100004              -2.84344508042e-21                -4.2016870075800004e-34               27                                   2                                         21                                      23                                   2                                       30                                -1.42172253829e-21          -1.42172254213e-21         28                           28                         0                    5.0902180773999999e-08  0.70710678214300005  0.70710678022999995
# Table End
