# ODT 1.0
# Table Start
# Title: mmArchive Data Table, Thu Jan 24 15:26:02 CET 2019
# Columns: {Oxs_RungeKuttaEvolve::Total energy} {Oxs_RungeKuttaEvolve::Energy calc count} {Oxs_RungeKuttaEvolve::Max dm/dt} Oxs_RungeKuttaEvolve::dE/dt {Oxs_RungeKuttaEvolve::Delta E} Oxs_UniformExchange::Energy {Oxs_UniformExchange::Max Spin Ang} {Oxs_UniformExchange::Stage Max Spin Ang} {Oxs_UniformExchange::Run Max Spin Ang} Oxs_FixedZeeman::Energy Oxs_TimeDriver::Iteration {Oxs_TimeDriver::Stage iteration} Oxs_TimeDriver::Stage Oxs_TimeDriver::mx   Oxs_TimeDriver::my   Oxs_TimeDriver::mz   {Oxs_TimeDriver::Last time step} {Oxs_TimeDriver::Simulation time}
# Units:                    J                                      {}                                  deg/ns                           J/s                            J                             J                              deg                                    deg                                      deg                              J                       {}                            {}                          {}                   {}                   {}                   {}                          s                                 s                
                   -6.9232515001490552e-18                    37                                    12505.877810863349            -1.1697362950748702e-07          -2.8210838574625261e-20           0                               0                                      0                                        0                              -6.9232515001490552e-18      6                             6                           0                     0.25990587032171908 -0.96533023663923878 -0.024217200547134481        2.4110717274233618e-13              5.0000000000000009e-13       
                   -6.9817052612008031e-18                    44                                    12498.800265337111            -1.1684126743985833e-07          -5.8453761051747679e-20           0                               0                                      0                                        0                              -6.9817052612008031e-18      8                             1                           1                     0.28315310916007447 -0.95026623164235047 -0.12968579634342792        4.9999999999999999e-13              1.0000000000000002e-12       
                   -7.0400926008512412e-18                    51                                    12491.667304420962            -1.167079448229286e-07          -5.838733965043802e-20           0                               0                                      0                                        0                              -7.0400926008512412e-18      10                            1                           2                     0.30591944914298319 -0.92316579226286188 -0.232762133156869          4.9999999999999999e-13              1.5000000000000001e-12       
                   -7.0984130400488863e-18                    58                                    12484.479095344361            -1.1657366655352994e-07          -5.8320439197644327e-20           0                               0                                      0                                        0                              -7.0984130400488863e-18      12                            1                           3                     0.32794268229731471 -0.88438666125919918 -0.33213525936649424        4.9999999999999999e-13              2e-12                     
                   -7.156666102197261e-18                    65                                    12477.235806397101            -1.1643843755481769e-07          -5.8253062148374441e-20           0                               0                                      0                                        0                              -7.156666102197261e-18      14                            1                           4                     0.34897031115475408 -0.83443452868804247 -0.42654277542318986        4.9999999999999999e-13              2.4999999999999998e-12       
                   -7.2148513131679826e-18                    72                                    12469.937606920077            -1.1630226277590195e-07          -5.8185210970722199e-20           0                               0                                      0                                        0                              -7.2148513131679826e-18      16                            1                           5                     0.36876274726048125 -0.77395643262881364 -0.5147868263906743         4.9999999999999999e-13              2.9999999999999997e-12       
                   -7.2729682013136252e-18                    79                                    12462.584667296016            -1.1616514719147889e-07          -5.8116888145642641e-20           0                               0                                      0                                        0                              -7.2729682013136252e-18      18                            1                           6                     0.38709634174161006 -0.70373236932302019 -0.59574925478532526        4.9999999999999999e-13              3.4999999999999996e-12       
                   -7.3310162974804323e-18                    86                                    12455.177158940178            -1.1602709580146043e-07          -5.8048096166807519e-20           0                               0                                      0                                        0                              -7.3310162974804323e-18      20                            1                           7                     0.40376620954793424 -0.62466522163659699 -0.66840572177756952        4.9999999999999999e-13              3.9999999999999999e-12       
                   -7.3889951350208415e-18                    93                                    12447.71525429101             -1.158881136306038e-07          -5.7978837540409523e-20           0                               0                                      0                                        0                              -7.3889951350208415e-18      22                            1                           8                     0.41858881165154382 -0.53776913605126919 -0.73183861818765716        4.9999999999999999e-13              4.4999999999999998e-12       
                   -7.4469042498057876e-18                    100                                   12440.199126800748            -1.1574820572813916e-07          -5.7909114784945498e-20           0                               0                                      0                                        0                              -7.4469042498057876e-18      24                            1                           9                     0.43140426261807352 -0.44415649800335771 -0.78524860233963401        4.9999999999999999e-13              4.9999999999999997e-12       
# Table End
