# ODT 1.0
# Table Start
# Title: mmArchive Data Table, Thu Dec 31 19:08:06 GMT 2020
# Columns: {Oxs_CGEvolve:evolver:Max mxHxm} {Oxs_CGEvolve:evolver:Total energy} {Oxs_CGEvolve:evolver:Delta E} {Oxs_CGEvolve:evolver:Bracket count} {Oxs_CGEvolve:evolver:Line min count} {Oxs_CGEvolve:evolver:Conjugate cycle count} {Oxs_CGEvolve:evolver:Cycle count} {Oxs_CGEvolve:evolver:Cycle sub count} {Oxs_CGEvolve:evolver:Energy calc count} Oxs_UniformExchange:exchange:Energy {Oxs_UniformExchange:exchange:Max Spin Ang} {Oxs_UniformExchange:exchange:Stage Max Spin Ang} {Oxs_UniformExchange:exchange:Run Max Spin Ang} Oxs_Demag:demag:Energy Oxs_UniaxialAnisotropy:uniaxialanisotropy:Energy Oxs_DMI_Cnv:dmi:Energy Oxs_FixedZeeman:zeeman:Energy Oxs_CubicAnisotropy:cubicanisotropy:Energy Oxs_UZeeman::Energy  Oxs_UZeeman::B       Oxs_UZeeman::Bx      Oxs_UZeeman::By      Oxs_UZeeman::Bz      Oxs_MinDriver::Iteration {Oxs_MinDriver::Stage iteration} Oxs_MinDriver::Stage Oxs_MinDriver::mx    Oxs_MinDriver::my    Oxs_MinDriver::mz   
# Units:                 A/m                                 J                                J                                 {}                                   {}                                        {}                                      {}                                   {}                                      {}                                     J                                      deg                                            deg                                              deg                                 J                                   J                                   J                          J                                   J                               J                 mT                   mT                   mT                   mT                        {}                           {}                         {}                 {}                   {}                   {}           
                  0.063312865442900004              -7.7516367618299998e-17              -2.4651903288199998e-31               67                                   15                                        45                                      60                                   15                                      83                                    1.25210386858e-19                       24.301647792400001                             179.85741861100001                               179.85741861100001                  5.9535712040499996e-17                 1.4978467850199999e-21                -5.4391820087499998e-21       1.3718721300499999e-20                  1.45573664908e-22              -1.3718721300500001e-16  1256.63706144        0                    0                   -1256.63706144          80                           80                         0                   -3.6379788070900003e-18  5.9265982021000006e-17 -0.99245559449099996
                  0.090868951562400005              -4.7420816733199999e-17              -5.36178896517e-31                 118                                  56                                        47                                      104                                  42                                      176                                   8.24846415171e-19                       43.276773432399999                             48.666391871099997                               179.85741861100001                  5.3668409946999999e-17                 1.00913724064e-20                  -6.6526134789400001e-21       1.3105481772e-20                     9.0755734346299999e-22            -1.01931524893e-16    977.38438111699998   0                    0                   -977.38438111699998     167                          86                         1                    2.2158267463299999e-15 -3.6330046978900002e-14 -0.94809191164399997
                  0.099535037913100005              -2.45228764915e-17                -3.0814879110199999e-32               207                                  113                                       64                                      180                                  26                                      323                                   3.4078989380099998e-19                     50.608821134300001                             100.214406225                                    179.85741861100001                  2.5650719815699999e-17                 5.5180955605699996e-20                -4.80419752592e-21         9.1037405581699997e-21                  2.4697345840399999e-21            -5.0576336434300002e-17  698.131700798        0                    0                   -698.131700798          305                          137                        2                   -3.2457882419900001e-08  1.4834104558599999e-07 -0.65859332293600004
                  0.098372831780400002              -8.1808732929300004e-18              -2.4651903288199999e-32               241                                  136                                       69                                      208                                  22                                      381                                   3.4469423750400001e-19                     72.909419895400006                             73.514717301100006                               179.85741861100001                  9.9411327282699998e-18                 8.2730301444299997e-20                -2.7630505404699999e-21       5.5662151727100003e-21                  1.8168509287800001e-21            -1.8554050575700001e-17  418.87902047900002   0                    0                   -418.87902047900002     359                          53                         3                   -7.3077074167399998e-10  3.2804521107600002e-09 -0.40267757229599999
                  0.072724331092799993               1.2126614119e-19                 -2.6842648599899999e-31               272                                  158                                       73                                      234                                  20                                      435                                   3.6094994602999999e-19                     87.874928452899994                             87.889137017600007                               179.85741861100001                  1.7617652288499999e-18                 9.7770966809099997e-20                -1.6905390005599999e-21       1.89025250151e-21                    8.6084322408199994e-22            -2.10028055723e-18    139.62634016000001   0                    0                   -139.62634016000001     410                          50                         4                   -4.2148442430899996e-12  1.80282561235e-11   -0.13674683150299999
                  0.072469231661200006               1.1748228453900001e-19              -1.0994652570000001e-31               308                                  180                                       81                                      263                                  21                                      494                                   3.6094149376100002e-19                     87.867386569800004                             89.972720746999997                               179.85741861100001                  1.76550478919e-18                   9.7763726490699994e-20                -1.6909530205e-21         -1.8936041070700001e-21                  8.6139563254099997e-22            -2.1040045634099999e-18  139.62634016000001   0                    0                    139.62634016000001     463                          52                         5                   -9.24549319527e-15    3.7923349406199999e-14  0.13698929722700001
                  0.083980226248600007              -8.19200898851e-18                -3.0814879110200002e-33               339                                  202                                       85                                      288                                  21                                      548                                   3.4468040111200002e-19                     72.891334784600005                             87.867386569800004                               179.85741861100001                  9.9520507631200004e-18                 8.2710661638099996e-20                -2.76453896078e-21        -5.5694803844600004e-21                  1.8178198248799999e-21            -1.8564934614899999e-17  418.87902047900002   0                    0                    418.87902047900002     513                          49                         6                   -1.86264514923e-16    1.0022300888200001e-15  0.40291378801799999
                  0.093614480519399995              -2.4541087024399999e-17              -1.84889274661e-32                 372                                  226                                       89                                      316                                  24                                      606                                   3.40791459352e-19                       50.5877578395                                  72.891334784600005                               179.85741861100001                  2.56677035813e-17                   5.51519969664e-20                  -4.80620403787e-21        -9.1067923414700005e-21                  2.4697203363000001e-21            -5.0593290785900001e-17  698.131700798        0                    0                    698.131700798          567                          53                         7                   -1.6933137720299999e-16  4.0216202085699999e-17  0.65881409857100004
                  0.0702858531319                  -4.8310235835000002e-17              -2.3419308123700001e-31               409                                  254                                       93                                      348                                  28                                      672                                   2.9514499026200002e-19                     31.0146579458                                  50.5877578395                                    179.85741861100001                  4.58727331525e-17                   2.2180340065899999e-20                -6.2939954200400001e-21      -1.21478753251e-20                    1.62230390379e-21              -9.4483474750899999e-17  977.38438111699998   0                    0                    977.38438111699998     629                          61                         8                    2.5399706580400001e-17 -1.4816495505200001e-17  0.878815639117     
                  0.098064165675899997              -7.7543805165900004e-17              -9.8607613152600004e-32               457                                  289                                       96                                      387                                  36                                      756                                   1.25088594715e-19                       24.2931059408                                  31.0146579458                                    179.85741861100001                  5.9536884881299997e-17                 1.4963447863299999e-21                -5.4381345080999997e-21      -1.3718826345599999e-20                  1.45430211255e-22              -1.37188263456e-16    1256.63706144        0                    0                    1256.63706144          706                          76                         9                    6.8956234661700003e-18  1.26998532902e-17    0.99246319378299996
                  0.097907875046500004              -4.8310235835000002e-17              -4.3140830754300002e-32               541                                  356                                       103                                     461                                  44                                      908                                   2.9514497463899999e-19                     31.0146565262                                  48.614167685699996                               179.85741861100001                  4.58727335964e-17                   2.21803392613e-20                  -6.29399330226e-21        -1.21478753804e-20                    1.62230385475e-21              -9.4483475180500003e-17  977.38438111699998   0                    0                    977.38438111699998     853                          146                        10                   2.87863341245e-16    2.2711570967300001e-15  0.878815643112     
                  0.097815187072699997              -2.4541087024399999e-17              -3.4204515812299998e-31               584                                  384                                       110                                     496                                  27                                      980                                   3.4079143754399998e-19                     50.587743976299997                             51.6198470211                                    179.85741861100001                  2.5667704741700001e-17                 5.5151994471499999e-20                -4.8062066375700003e-21      -9.1067925454599999e-21                  2.4697203870200001e-21            -5.0593291919199998e-17  698.131700798        0                    0                    698.131700798          919                          65                         11                  -6.7732550881099997e-17  1.1429867961199999e-16  0.65881411332899997
                  0.098695125259399996              -8.19200898851e-18                -2.61926472437e-32                 618                                  407                                       115                                     524                                  22                                      1038                                  3.4468044283800002e-19                     72.891332102899995                             73.497247824300004                               179.85741861100001                  9.9520504014299994e-18                 8.2710661843099999e-20                -2.7645381441599999e-21      -5.5694802887800001e-21                  1.8178197546100001e-21            -1.8564934295900001e-17  418.87902047900002   0                    0                    418.87902047900002     973                          53                         12                  -1.6933137720299999e-17  1.0583211075200001e-18  0.40291378109699999
                  0.072780289857300007               1.1748228453900001e-19              -2.70087600576e-31                 649                                  429                                       119                                     550                                  20                                      1092                                  3.6094153140600002e-19                     87.867381552500007                             87.881579770900004                               179.85741861100001                  1.7655047873799998e-18                 9.7763726396200004e-20                -1.6909548891599999e-21      -1.8936041374399999e-21                  8.6139553546599993e-22            -2.1040045971600001e-18  139.62634016000001   0                    0                    139.62634016000001     1024                         50                         13                   6.7732550881099997e-17 -2.64580276879e-18    0.13698929942400001
                  0.072583665525899996               1.2126614119e-19                 -1.1362986671900001e-31               685                                  451                                       127                                     579                                  21                                      1151                                  3.60949908447e-19                       87.874933441799996                             89.9718214934                                    179.85741861100001                  1.7617652317599999e-18                 9.7770966901399997e-20                -1.6905371234500001e-21       1.89025247213e-21                    8.60843321215e-22              -2.1002805245899998e-18  139.62634016000001   0                    0                   -139.62634016000001     1077                         52                         14                  -1.3546510176199999e-16 -1.00540505214e-17   -0.13674682937800001
                  0.083654364973700004              -8.1808732929300004e-18              -6.1629758220400004e-33               716                                  473                                       131                                     604                                  21                                      1205                                  3.4469419554700002e-19                     72.909420721000004                             87.874933441799996                               179.85741861100001                  9.9411330874000008e-18                 8.2730301238600002e-20                -2.7630513517899998e-21       5.5662152676099997e-21                  1.8168509976e-21               -1.8554050891999999e-17  418.87902047900002   0                    0                   -418.87902047900002     1127                         49                         15                   8.4665688601399994e-17  5.2916055375900002e-18 -0.402677579161     
                  0.093569695839100006              -2.45228764915e-17                -1.84889274661e-32                 749                                  497                                       135                                     632                                  24                                      1263                                  3.4078993629499999e-19                     50.608780371400002                             72.909420721000004                               179.85741861100001                  2.5650718243399999e-17                 5.5180959337900003e-20                -4.8041950936200001e-21       9.1037402838499995e-21                  2.46973455607e-21              -5.0576334910300002e-17  698.131700798        0                    0                   -698.131700798          1181                         53                         16                   1.01598826322e-16   -2.5399706580400001e-17 -0.65859330309099995
                  0.070314448217000003              -4.8285942392100001e-17              -2.4035605706000002e-31               786                                  525                                       139                                     664                                  28                                      1329                                  2.9524925031199999e-19                     31.017580381599998                             50.608780371400002                               179.85741861100001                  4.5854647651800002e-17                 2.22085771166e-20                  -6.2939054437800001e-21       1.2145567278599999e-20                  1.62374517924e-21              -9.4465523278299995e-17  977.38438111699998   0                    0                   -977.38438111699998     1243                         61                         17                   1.6933137720299999e-17 -2.7516348795499999e-17 -0.87864866774999995
                  0.078588149173600005              -7.7516367618299998e-17              -2.4651903288199999e-32               835                                  561                                       142                                     704                                  37                                      1415                                  1.2521038190900001e-19                     24.301652135600001                             31.017580381599998                               179.85741861100001                  5.9535712092200004e-17                 1.4978467190200001e-21                -5.4391830569900003e-21       1.3718721305100001e-20                  1.45573658415e-22              -1.3718721305099999e-16  1256.63706144        0                    0                   -1256.63706144          1322                         78                         18                   4.4813284396399998e-18 -2.1166422150400002e-18 -0.99245559482099999
# Table End
