# ODT 1.0
# Table Start
# Title: mmArchive Data Table, Thu Nov 01 23:22:15 CET 2018
# Columns: {Oxs_RungeKuttaEvolve::Total energy} {Oxs_RungeKuttaEvolve::Energy calc count} {Oxs_RungeKuttaEvolve::Max dm/dt} Oxs_RungeKuttaEvolve::dE/dt {Oxs_RungeKuttaEvolve::Delta E} Oxs_UniformExchange::Energy {Oxs_UniformExchange::Max Spin Ang} {Oxs_UniformExchange::Stage Max Spin Ang} {Oxs_UniformExchange::Run Max Spin Ang} Oxs_FixedZeeman::Energy Oxs_TimeDriver::Iteration {Oxs_TimeDriver::Stage iteration} Oxs_TimeDriver::Stage Oxs_TimeDriver::mx   Oxs_TimeDriver::my   Oxs_TimeDriver::mz   {Oxs_TimeDriver::Last time step} {Oxs_TimeDriver::Simulation time}
# Units:                    J                                      {}                                  deg/ns                           J/s                            J                             J                              deg                                    deg                                      deg                              J                       {}                            {}                          {}                   {}                   {}                   {}                          s                                 s                
                   -5.2014399174106964e-18                    37                                    12686.309279019993            -1.2037330730766928e-07          -8.9717465119855765e-20           0                               0                                      0                                        0                              -5.2014399174106964e-18      6                             6                           0                     0.19374909549048344  0.98099381182000123 -0.010603262115133846        7.4485968768351347e-13              1.0000000000000002e-12       
                   -5.3217103750470259e-18                    44                                    12675.443839406056            -1.2016720342343472e-07          -1.2027045763632972e-19           0                               0                                      0                                        0                              -5.3217103750470259e-18      8                             1                           1                     0.15480245866819697  0.96616916970135891  0.20628459542308772        9.9999999999999998e-13              2.0000000000000004e-12       
                   -5.4417725515435585e-18                    51                                    12664.339877297183            -1.1995675751895868e-07          -1.2006217649653251e-19           0                               0                                      0                                        0                              -5.4417725515435585e-18      10                            1                           2                     0.11762799981724531  0.90251945825999569  0.41427319623779396        9.9999999999999998e-13              3.0000000000000001e-12       
                   -5.5616221209776698e-18                    58                                    12652.998469676146            -1.1974200186387238e-07          -1.1984956943411201e-19           0                               0                                      0                                        0                              -5.5616221209776698e-18      12                            1                           3                     0.084318658732520174  0.7933508161817151   0.60289704448882031        9.9999999999999998e-13              3.9999999999999999e-12       
                   -5.6812547899833565e-18                    65                                    12641.420714199321            -1.1952296929943247e-07          -1.1963266900568593e-19           0                               0                                      0                                        0                              -5.6812547899833565e-18      14                            1                           4                     0.056767566623126188  0.64426848065961773  0.7626896932620999         9.9999999999999998e-13              4.9999999999999997e-12       
                   -5.8006662983176482e-18                    72                                    12629.60772894348             -1.1929969322809408e-07          -1.1941150833429154e-19           0                               0                                      0                                        0                              -5.8006662983176482e-18      16                            1                           5                     0.036572462066307369  0.46288861547593985  0.88566166490436726        9.9999999999999998e-13              5.9999999999999995e-12       
                   -5.9198524194165509e-18                    79                                    12617.560652148699            -1.1907220760294684e-07          -1.191861210989033e-19           0                               0                                      0                                        0                              -5.9198524194165509e-18      18                            1                           6                     0.024955261052598775  0.2584486826453995   0.96570260089980753        9.9999999999999998e-13              6.9999999999999993e-12       
                   -6.0388089609403419e-18                    86                                    12605.280641957526            -1.188405469170202e-07          -1.1895654152379131e-19           0                               0                                      0                                        0                              -6.0388089609403419e-18      20                            1                           7                     0.022700835088996573  0.041336318591148599  0.99888737145465611        9.9999999999999998e-13              7.9999999999999998e-12       
                   -6.1575317653081094e-18                    93                                    12592.768876150505            -1.1860474619246273e-07          -1.1872280436776685e-19           0                               0                                      0                                        0                              -6.1575317653081094e-18      22                            1                           8                     0.030118068195216775 -0.17743922244050742  0.98367079061436757        9.9999999999999998e-13              8.9999999999999996e-12       
                   -6.276016710221411e-18                    100                                   12580.026551878154            -1.1836484096960161e-07          -1.1848494491330227e-19           0                               0                                      0                                        0                              -6.2760167102214118e-18      24                            1                           9                     0.047025126281924422 -0.38680612409362869  0.92096126946893542        9.9999999999999998e-13              9.9999999999999994e-12       
                   -6.3942597091769481e-18                    107                                   12567.054885389507            -1.1812086729588801e-07          -1.1824299895553665e-19           0                               0                                      0                                        0                              -6.3942597091769481e-18      26                            1                           10                    0.072759638986879302 -0.57619113264877941  0.81406990706659488        9.9999999999999998e-13              1.0999999999999999e-11       
                   -6.5122567119680993e-18                    114                                   12553.855111757379            -1.1787286171473388e-07          -1.1799700279115126e-19           0                               0                                      0                                        0                              -6.5122567119680993e-18      28                            1                           11                    0.10621322748909591 -0.73605427211888519  0.66853785143541922        9.9999999999999998e-13              1.1999999999999999e-11       
                   -6.6300037051752758e-18                    121                                   12540.428484600374            -1.1762086125424589e-07          -1.1774699320717653e-19           0                               0                                      0                                        0                              -6.6300037051752758e-18      30                            1                           12                    0.14588857660745747 -0.85837006986651354  0.49185093918056721        9.9999999999999998e-13              1.2999999999999999e-11       
                   -6.747496712644931e-18                    128                                   12526.776275801834            -1.1736490341586228e-07          -1.1749300746965537e-19           0                               0                                      0                                        0                              -6.747496712644931e-18      32                            1                           13                    0.18997610837715689 -0.93703098510483285  0.29305632769032092        9.9999999999999998e-13              1.3999999999999999e-11       
                   -6.8647317959571863e-18                    135                                   12512.899775225824            -1.1710502616289881e-07          -1.1723508331225516e-19           0                               0                                      0                                        0                              -6.8647317959571863e-18      34                            1                           14                    0.23644632512342253 -0.96815273431991011  0.082300779853594283        9.9999999999999998e-13              1.5e-11                   
# Table End
