# ODT 1.0
# Table Start
# Title: mmArchive Data Table, Thu Nov 01 23:22:18 CET 2018
# Columns: {Oxs_CGEvolve::Max mxHxm} {Oxs_CGEvolve::Total energy} {Oxs_CGEvolve::Delta E} {Oxs_CGEvolve::Bracket count} {Oxs_CGEvolve::Line min count} {Oxs_CGEvolve::Conjugate cycle count} {Oxs_CGEvolve::Cycle count} {Oxs_CGEvolve::Cycle sub count} {Oxs_CGEvolve::Energy calc count} Oxs_UniformExchange::Energy {Oxs_UniformExchange::Max Spin Ang} {Oxs_UniformExchange::Stage Max Spin Ang} {Oxs_UniformExchange::Run Max Spin Ang} Oxs_FixedZeeman::Energy Oxs_MinDriver::Iteration {Oxs_MinDriver::Stage iteration} Oxs_MinDriver::Stage Oxs_MinDriver::mx    Oxs_MinDriver::my    Oxs_MinDriver::mz   
# Units:              A/m                         J                          J                         {}                             {}                                {}                               {}                            {}                               {}                              J                              deg                                    deg                                      deg                              J                       {}                           {}                         {}                 {}                   {}                   {}           
              1.7278070917044846e-05        -2.7680904998347544e-17      -4.5730451564936716e-27        12                             3                                 8                                8                             0                                16                             0                               0                                      0                                        0                              -2.7680904998347544e-17      13                           13                         0                    0.9805806756879718   7.8131942509717197e-12  0.1961161351529255 
# Table End
