# ODT 1.0
# Table Start
# Title: mmArchive Data Table, Fri May 05 14:01:54 BST 2017
# Columns: {Oxs_CGEvolve::Max mxHxm} {Oxs_CGEvolve::Total energy} {Oxs_CGEvolve::Delta E} {Oxs_CGEvolve::Bracket count} {Oxs_CGEvolve::Line min count} {Oxs_CGEvolve::Conjugate cycle count} {Oxs_CGEvolve::Cycle count} {Oxs_CGEvolve::Cycle sub count} {Oxs_CGEvolve::Energy calc count} Oxs_UniformExchange::Energy {Oxs_UniformExchange::Max Spin Ang} {Oxs_UniformExchange::Stage Max Spin Ang} {Oxs_UniformExchange::Run Max Spin Ang} Oxs_Demag::Energy    Southampton_UniaxialAnisotropy4::Energy Oxs_CubicAnisotropy::Energy Oxs_DMExchange6Ngbr::Energy Oxs_MinDriver::Iteration {Oxs_MinDriver::Stage iteration} Oxs_MinDriver::Stage Oxs_MinDriver::mx    Oxs_MinDriver::my    Oxs_MinDriver::mz   
# Units:              A/m                         J                          J                         {}                             {}                                {}                               {}                            {}                               {}                              J                              deg                                    deg                                      deg                           J                               J                                 J                           J                         {}                           {}                         {}                 {}                   {}                   {}           
              0.0088433546432139191         1.0125974219882903e-18      -1.9259299443872359e-34        222                            210                               1                                218                           217                              433                            8.6683835285399244e-20             4.2930972893033488                     9.0135354521659998                       9.0135354521659998             5.4417095660589854e-19           3.7499999984292498e-19               6.7427511027711417e-21        -1.2084869850875755e-25        428                          428                        0                    0.96942854419474767  0.11865860789033965 -1.945049902816429e-10
# Table End
#
# Table Start
# Title: mmArchive Data Table, Fri May 05 14:03:18 BST 2017
# Columns: {Oxs_RungeKuttaEvolve:evolver:Total energy} {Oxs_RungeKuttaEvolve:evolver:Energy calc count} {Oxs_RungeKuttaEvolve:evolver:Max dm/dt} Oxs_RungeKuttaEvolve:evolver:dE/dt {Oxs_RungeKuttaEvolve:evolver:Delta E} Oxs_UniformExchange::Energy {Oxs_UniformExchange::Max Spin Ang} {Oxs_UniformExchange::Stage Max Spin Ang} {Oxs_UniformExchange::Run Max Spin Ang} Oxs_Demag::Energy    Southampton_UniaxialAnisotropy4::Energy Oxs_CubicAnisotropy::Energy Oxs_DMExchange6Ngbr::Energy Oxs_FixedZeeman::Energy Oxs_TimeDriver::Iteration {Oxs_TimeDriver::Stage iteration} Oxs_TimeDriver::Stage Oxs_TimeDriver::mx   Oxs_TimeDriver::my   Oxs_TimeDriver::mz   {Oxs_TimeDriver::Last time step} {Oxs_TimeDriver::Simulation time}
# Units:                        J                                             {}                                         deg/ns                                 J/s                                   J                                 J                              deg                                    deg                                      deg                           J                               J                                 J                           J                         J                       {}                            {}                          {}                   {}                   {}                   {}                          s                                 s                
                       4.5130253575149823e-18                            31                                           272.71313146139806                   -6.0955875382140233e-11                 -7.6449529583537172e-23              8.7730175216687645e-20             4.3131457882103215                     4.3131457882103215                       4.3131457882103215             5.4680461200965463e-19           3.7498972618384253e-19               6.833727820199323e-21        -1.2122041717172293e-25       3.4966672375050151e-18      5                             5                           0                     0.96876778324552404  0.12106338398299887 -0.006178129410499042        1.3838511714822314e-12              5.0000000000000005e-12       
                       4.512571435559838e-18                            44                                           375.24176273535357                   -1.2764236435417023e-10                 -1.671408416795036e-22              9.0788663501869294e-20             4.3347806439031329                     4.3347806439031329                       4.3347806439031329             5.5469202053612829e-19           3.7495975184000254e-19               7.0951481583140683e-21        -1.2135619133804663e-25       3.4850359728797152e-18      8                             2                           1                     0.96682243116687072  0.12796712887458708 -0.012229171266307303        1.4463990933721776e-12              1.0000000000000001e-11       
                       4.5116817628346542e-18                            69                                           492.65240822536089                   -2.3466928814039192e-10                 -1.1544285495151385e-22              9.5824970152171714e-20             4.3795659455138738                     4.3795659455138738                       4.3795659455138738             5.6790528607436876e-19           3.749116783654383e-19               7.5197490205121866e-21        -1.2095560758782814e-25       3.4655202001777707e-18      12                            3                           2                     0.9634988889185564   0.13921038748803616 -0.01812346115932368        5.0551197148222347e-13              1.5e-11                   
                       4.51016456001624e-18                            88                                           613.17468768720721                   -3.7784484209865825e-10                 -5.3135090723695203e-22              1.0273302736043497e-19             4.4569197666481788                     4.4569197666481788                       4.4569197666481788             5.8680475385388242e-19           3.7484760785485209e-19               8.0960696405967273e-21        -1.2013241432208936e-25       3.4376832214388879e-18      16                            3                           3                     0.95864148342855371  0.1545796161404219  -0.023828488536795808        1.4993775803605252e-12              2.0000000000000002e-11       
                       4.507851716246462e-18                            107                                          730.37196315701397                   -5.519624789214875e-10                 -7.5242492451297584e-22              1.1134665800938133e-19             4.5588130598649661                     4.5588130598649661                       4.5588130598649661             6.1196778225061351e-19           3.7477017530883662e-19               8.806793382863344e-21        -1.1920579553823434e-25       3.4009604265005625e-18      20                            3                           4                     0.95204996100702655  0.1738045420364058  -0.029308866021253672        1.4319799799795402e-12              2.5000000000000004e-11       
                       4.5046038855581769e-18                            126                                          835.98936624439079                   -7.5069796323198657e-10                 -9.9414429048446998e-22              1.2143756495707708e-19             4.647416936413757                      4.647416936413757                        4.647416936413757              6.4411936307082727e-19           3.7468250069907664e-19               9.6285745075580981e-21        -1.1862855493505186e-25       3.354736000952193e-18      24                            3                           5                     0.94350014652787384  0.19655742594388065 -0.03452712588279392        1.3765607787551302e-12              3.0000000000000006e-11       
                       4.5003157661713946e-18                            145                                          935.81394960823593                   -9.6682460568876364e-10                 -1.1113273876257184e-21              1.3272318435247676e-19             4.740628061876337                      4.740628061876337                        4.740628061876337              6.840487458207708e-19           3.7458801789597408e-19               1.0533903107643554e-20        -1.1893694593711697e-25       3.2984220339314749e-18      28                            3                           6                     0.93276591396436281  0.22245610634914317 -0.039446035616887545        1.1814381450322497e-12              3.5000000000000008e-11       
                       4.4949194577140737e-18                            164                                          1023.640553142974                    -1.1927109990693995e-09                 -1.1980805159348548e-21              1.448914233495905e-19             4.8164761540769794                     4.8164761540769794                       4.8164761540769794             7.325138474653618e-19           3.7449018897606919e-19               1.149448299580359e-20        -1.2069525257282839e-25       3.231529635622501e-18      32                            3                           7                     0.91963985385276248  0.25107197688744293 -0.044032407329810924        1.0245771797490863e-12              4.0000000000000011e-11       
                       4.4883847158161356e-18                            183                                          1100.6585864720603                   -1.4210531249710472e-09                 -1.5569056329991275e-21              1.5763504574461037e-19             4.8918467405380373                     4.8918467405380373                       4.8918467405380373             7.901511433679267e-19           3.7439214725150403e-19               1.2484958370821316e-20        -1.2443660947336475e-25       3.1537215455178827e-18      36                            3                           8                     0.90394978836772821  0.28194290473998057 -0.048261807208590669        1.1155375342116296e-12              4.5000000000000013e-11       
                       4.4807152635310517e-18                            202                                          1172.0030657679511                   -1.6457069801881212e-09                 -1.8505536425788095e-21              1.7068946358820721e-19             4.9736251922944215                     4.9736251922944215                       4.9736251922944215             8.5740545711460232e-19           3.7429634444884145e-19               1.3485850749626392e-20        -1.3057811534190438e-25       3.0648382782078894e-18      40                            3                           9                     0.88556874905805538  0.31458977645680358 -0.05212322702626225        1.1420538831904098e-12              5.0000000000000015e-11       
                       4.4719413139097499e-18                            221                                          1239.380386983541                    -1.8622963668755589e-09                 -2.0859176418199412e-21              1.8387007044308378e-19             5.1850303304019674                     5.1850303304019674                       5.1850303304019674             9.3448665324224818e-19           3.7420429008469843e-19               1.4485040773480545e-20        -1.3931679436586977e-25       2.9648953986830335e-18      44                            3                           10                    0.86441731638091335  0.34853410660603973 -0.055622781841380933        1.1347679933155891e-12              5.5000000000000017e-11       
                       4.4621095893774794e-18                            240                                          1303.2376647350798                   -2.0686832358671421e-09                 -2.3242283808128467e-21              1.9702250845484065e-19             5.562469504774775                      5.562469504774775                        5.562469504774775              1.0214378111159238e-18           3.7411643636200966e-19               1.5477720911609144e-20        -1.5099038115920625e-25       2.8540552635234771e-18      48                            3                           11                    0.84045876820125487  0.38331409478693546 -0.058785354845720193        1.1361364402425864e-12              6.0000000000000013e-11       
                       4.4512711564216949e-18                            259                                          1363.2495176336533                   -2.2652235469758381e-09                 -2.5812332665204813e-21              2.1013081262073159e-19             5.8598523173634209                     5.8598523173634209                       5.8598523173634209             1.1180703192041265e-18           3.7403218896093335e-19               1.6465003809294893e-20        -1.6536207956112881e-25       2.7325729971886878e-18      52                            3                           12                    0.81368670437615231  0.41849758443069812 -0.061655038580817376        1.1507818980781561e-12              6.5000000000000008e-11       
                       4.4394701979700839e-18                            278                                          1419.1317810161613                   -2.4542458310133175e-09                 -2.823903752212105e-21              2.2329035220129967e-19             6.1082918939234512                     6.1082918939234512                       6.1082918939234512             1.2240395371236981e-18           3.7394992818347993e-19               1.7452176626416188e-20        -1.8178917055060527e-25       2.6007383856243601e-18      56                            3                           13                    0.78411032252104562  0.45368791391761076 -0.064293559719058452        1.1608810836804992e-12              7.0000000000000004e-11       
                       4.4267345148068451e-18                            297                                          1470.943145032672                    -2.6399661184432407e-09                 -3.2091937453020882e-21              2.3652076055232182e-19             6.3083522745534957                     6.3083522745534957                       6.3083522745534957             1.3390763556012731e-18           3.7386718850910806e-19               1.8447825243041377e-20        -1.9997432399744156e-25       2.4588225848754247e-18      60                            3                           14                    0.75173995704179608  0.48852380869370782 -0.066776905003701675        1.2262034274907302e-12              7.5e-11                   
                       4.4130663325307711e-18                            316                                          1519.0117233655033                   -2.8283868496670282e-09                 -3.5456600832233112e-21              2.498317583400404e-19             6.5483001932101876                     6.5483001932101876                       6.5483001932101876             1.4629688816941427e-18           3.7378082282104327e-19               1.946415426459566e-20        -2.1966860926616312e-25       2.3070209350795581e-18      64                            3                           15                    0.71657062047944708  0.5226738829276345  -0.069192951609358899        1.2644208892898889e-12              7.9999999999999995e-11       
                       4.3984336455506921e-18                            335                                          1583.6787778098214                   -3.0271821709285489e-09                 -3.8303376137445926e-21              2.6330563702405473e-19             6.7748504315633467                     6.7748504315633467                       6.7748504315633467             1.5955190452450141e-18           3.736870252389945e-19               2.0519106301239359e-20        -2.4055497902112963e-25       2.1454030722963681e-18      68                            3                           16                    0.67856647160523664  0.55582512856707855 -0.071639654914750966        1.2763704215491786e-12              8.4999999999999991e-11       
                       4.38276193617025e-18                            354                                          1697.3154962700869                   -3.245706472626835e-09                 -4.1177708841406333e-21              2.7714586251971641e-19             7.0119303028293318                     7.0119303028293318                       7.0119303028293318             1.736514540981714e-18           3.7358122057151021e-19               2.1640086296745765e-20        -2.6233117094027061e-25       1.9738804881317347e-18      72                            3                           17                    0.63764905148965412  0.58766590986665856 -0.074223181992054715        1.2802726337387351e-12              8.9999999999999986e-11       
                       4.3659252329771979e-18                            373                                          1824.0320183448628                   -3.4952422016834183e-09                 -4.423882830687801e-21              2.917163608879235e-19             7.2959602468418767                     7.2959602468418767                       7.2959602468418767             1.8856866280353138e-18           3.7345787414826498e-19               2.2867727903055943e-20        -2.8474583239139969e-25       1.7921969267484724e-18      76                            3                           18                    0.59369087907235485  0.61786421244577461 -0.077055948637712285        1.2781077747363863e-12              9.4999999999999982e-11       
                       4.3477356201499338e-18                            392                                          1966.4859334519022                   -3.7893291786699269e-09                 -4.775744309113022e-21              3.0760237334933273e-19             7.6551700945434025                     7.6551700945434025                       7.6551700945434025             2.0426204037921524e-18           3.7331033151776577e-19               2.4256722582953334e-20        -3.075776190032421e-25       1.5999460964853486e-18      80                            3                           19                    0.54651570068626343  0.64604161092415313 -0.080254026752089494        1.2738700389580211e-12              9.9999999999999978e-11       
                       4.3279316237924312e-18                            411                                          2140.5854809533944                   -4.1438073815764225e-09                 -5.1985502930893201e-21              3.2568650697346956e-19             8.0568950613844272                     8.0568950613844272                       8.0568950613844272             2.2066209499031706e-18           3.7313088191750954e-19               2.5869171828400106e-20        -3.3061451767833296e-25       1.396624443784399e-18      84                            3                           20                    0.49590765899435174  0.6717439037271079  -0.08393235698621572        1.2694702450316402e-12              1.0499999999999997e-10       
                       4.3061682340024562e-18                            430                                          2337.4801695169203                   -4.5760133201374746e-09                 -5.7374151200253037e-21              3.4719370443074303e-19             8.5090047097719417                     8.5090047097719417                       8.5090047097719417             2.3765771493012364e-18           3.7291137459054478e-19               2.7754636711266642e-20        -3.5353356432052291e-25       1.1817317225022295e-18      88                            3                           21                    0.44163339781320743  0.69441165182612719 -0.088195445171258061        1.27034251185449e-12              1.0999999999999997e-10       
                       4.2820144095810356e-18                            449                                          2552.7569295484914                   -5.1024605752037544e-09                 -6.4152080655507149e-21              3.7361145683779176e-19             9.0187353436141127                     9.0187353436141127                       9.0187353436141127             2.5509161660233706e-18           3.7264479561525833e-19               2.99129993185649e-20        -3.7580392319347054e-25       9.5492936758997368e-19      92                            3                           22                    0.3834811459535612   0.71335823407463383 -0.093121648271921986        1.2754222030288732e-12              1.1499999999999996e-10       
                       4.254967746045683e-18                            468                                          2781.5931454691408                   -5.734228527461945e-09                 -7.2506322732634048e-21              4.0639455638999155e-19             9.5900628401323953                     9.5900628401323953                       9.5900628401323953             2.7277419510514343e-18           3.7232793565908159e-19               3.2246985140645093e-20        -3.9710970342910101e-25       7.1625671491423404e-19      96                            3                           23                    0.32131909333660541  0.72776858836813041 -0.098740673584289229        1.2838963784062996e-12              1.1999999999999997e-10       
                       4.2244962802069956e-18                            487                                          3020.1102426258576                   -6.4711572150919683e-09                 -8.2283203996255772e-21              4.4658751447497518e-19             10.223100259265008                     10.223100259265008                       10.223100259265008             2.9050443103323878e-18           3.719645028051557e-19               3.4532070225910352e-20        -4.1658140510352127e-25       4.6636829894997124e-19      100                           3                           24                    0.2551662322141024   0.73673658592218372 -0.10500996034178438        1.291591281749308e-12              1.2499999999999998e-10       
                       4.1901058753688069e-18                            506                                          3258.3767715112754                   -7.2979679431706587e-09                 -9.3365870164884141e-21              4.9424066756362015e-19             10.913149620685084                     10.913149620685084                       10.913149620685084             3.0811546853651539e-18           3.7156639645479868e-19               3.6445489038250276e-20        -4.3316151452305594e-25       2.0669907010849836e-19      104                           3                           25                    0.18525204512211549  0.7393503509953383  -0.11180104808745402        1.2991745923322351e-12              1.2999999999999999e-10       
                       4.1514145069449203e-18                            525                                          3482.3421198295623                   -8.1860912383184576e-09                 -1.0488467870355231e-20              5.4808307913811725e-19             11.644401691232378                     11.644401691232378                       11.644401691232378             3.2550518816487034e-18           3.7115050295234332e-19               3.7665222117102787e-20        -4.463874062283252e-25      -6.0535732523939301e-20      108                           3                           26                    0.11203745557137464  0.73481231563154248 -0.11890768783501446        1.2999411868973247e-12              1.35e-10                  
                       4.1081969628113892e-18                            544                                          3708.3652080708566                   -9.103579230531812e-09                 -1.1683958661821163e-20              6.0569457316355155e-19             12.391961025222367                     12.391961025222367                       12.391961025222367             3.4263380270406596e-18           3.7073168842070089e-19               3.7982120092622394e-20        -4.5648043744802354e-25      -3.3254898942570752e-19      112                           3                           27                    0.036178236511020638  0.7225529955838107  -0.12607953447746539        1.3005985006636895e-12              1.4000000000000001e-10       
                       4.0603671281647224e-18                            563                                          3935.5134661987909                   -1.0028921818567048e-08                 -1.2873917364694798e-20              6.6391786186530658e-19             13.120143767918874                     13.120143767918874                       13.120143767918874             3.5951065889406652e-18           3.7031618100228716e-19               3.7345541052063349e-20        -4.6406991220010037e-25      -6.063185806256884e-19      116                           3                           28                   -0.041556318544422578  0.70228800805752722 -0.13306825036663864        1.2992780087502257e-12              1.4500000000000002e-10       
                       4.0078992516214266e-18                            582                                          4128.9061012238362                   -1.0960244381961621e-08                 -1.4052623959555652e-20              7.1926521656719345e-19             13.784299647536661                     13.784299647536661                       13.784299647536661             3.7617763141245285e-18           3.6989917040475336e-19               3.5825135199671989e-20        -4.6988738500509606e-25      -8.788661147873364e-19      120                           3                           29                   -0.12036291975269169  0.6739952572099086  -0.13966522824742317        1.296518466747142e-12              1.5000000000000002e-10       
                       3.9507274443913564e-18                            601                                          4274.6501843795113                   -1.1914432734996024e-08                 -1.525575380829951e-20              7.6836010455480371e-19             14.335769275715474                     14.335769275715474                       14.335769275715474             3.9266682037979997e-18           3.6946716688966583e-19               3.3546179647743238e-20        -4.7443557368861773e-25      -1.1473137360632827e-18      124                           3                           30                   -0.19943383272125037  0.63783394313566555 -0.1457172829897678         1.294079417231962e-12              1.5500000000000003e-10       
                       3.8886761714779376e-18                            620                                          4440.6950190977268                   -1.2915648146872285e-08                 -1.6525359836449854e-20              8.086342975863238e-19             14.725368160436576                     14.736848203098681                       14.736848203098681             4.0890607962398296e-18           3.690039315895454e-19               3.0668323163242503e-20        -4.7779655268303035e-25      -1.4086906993044515e-18      128                           3                           31                   -0.27792005970990385  0.59405531624137364 -0.15111812733519747        1.2927521641128578e-12              1.6000000000000004e-10       
                       3.821476618972015e-18                            639                                          4582.5505338630455                   -1.3972102675225346e-08                 -1.790044345654477e-20              8.3967334792780342e-19             15.144712695421255                     15.144712695421255                       15.144712695421255             4.2454818457166224e-18           3.6850084518120643e-19               2.7443217997055777e-20        -4.7955114719831115e-25      -1.659622158299526e-18      132                           3                           32                   -0.3548546517285055   0.54295890453063345 -0.15577963007486309        1.2940307667083403e-12              1.6500000000000005e-10       
                       3.7489245234882546e-18                            658                                          4664.249229865175                    -1.5045193858613137e-08                 -1.9341554353152039e-20              8.648042461136381e-19             15.445672257000533                     15.445672257000533                       15.445672257000533             4.3880262657052676e-18           3.6797195674027112e-19               2.4325789496691253e-20        -4.7873988616382819e-25      -1.8962032558277268e-18      136                           3                           33                   -0.42911119029658967  0.48493482734009252 -0.15959180557562827        1.2974201191656653e-12              1.7000000000000006e-10       
                       3.6711483310919401e-18                            677                                          4714.9479697118695                   -1.6044501650831058e-08                 -2.075638673857161e-20              8.9044025919794818e-19             15.52305208986918                      15.52305208986918                        15.52305208986918              4.5057349977142336e-18           3.6745847556664918e-19               2.1969359596927328e-20        -4.7433389138141873e-25      -2.1144542866499263e-18      140                           3                           34                   -0.49950801822468405  0.42057317736746197 -0.16239624896111235        1.3036707561515171e-12              1.7500000000000007e-10       