# ODT 1.0
# Table Start
# Title: mmArchive Data Table, Fri May 05 14:01:54 BST 2017
# Columns: {Oxs_CGEvolve::Max mxHxm} {Oxs_CGEvolve::Total energy} {Oxs_CGEvolve::Delta E} {Oxs_CGEvolve::Bracket count} {Oxs_CGEvolve::Line min count} {Oxs_CGEvolve::Conjugate cycle count} {Oxs_CGEvolve::Cycle count} {Oxs_CGEvolve::Cycle sub count} {Oxs_CGEvolve::Energy calc count} Oxs_UniformExchange::Energy {Oxs_UniformExchange::Max Spin Ang} {Oxs_UniformExchange::Stage Max Spin Ang} {Oxs_UniformExchange::Run Max Spin Ang} Oxs_Demag::Energy    Southampton_UniaxialAnisotropy4::Energy Oxs_CubicAnisotropy::Energy Oxs_DMExchange6Ngbr::Energy Oxs_MinDriver::Iteration {Oxs_MinDriver::Stage iteration} Oxs_MinDriver::Stage Oxs_MinDriver::mx    Oxs_MinDriver::my    Oxs_MinDriver::mz   
# Units:              A/m                         J                          J                         {}                             {}                                {}                               {}                            {}                               {}                              J                              deg                                    deg                                      deg                           J                               J                                 J                           J                         {}                           {}                         {}                 {}                   {}                   {}           
              0.0088433546432139191         1.0125974219882903e-18      -1.9259299443872359e-34        222                            210                               1                                218                           217                              433                            8.6683835285399244e-20             4.2930972893033488                     9.0135354521659998                       9.0135354521659998             5.4417095660589854e-19           3.7499999984292498e-19               6.7427511027711417e-21        -1.2084869850875755e-25        428                          428                        0                    0.96942854419474767  0.11865860789033965 -1.945049902816429e-10
# Table End
