# ODT 1.0
# Table Start
# Title: mmArchive Data Table, Thu Jan 24 15:26:05 CET 2019
# Columns: {Oxs_RungeKuttaEvolve::Total energy} {Oxs_RungeKuttaEvolve::Energy calc count} {Oxs_RungeKuttaEvolve::Max dm/dt} Oxs_RungeKuttaEvolve::dE/dt {Oxs_RungeKuttaEvolve::Delta E} Oxs_UniformExchange::Energy {Oxs_UniformExchange::Max Spin Ang} {Oxs_UniformExchange::Stage Max Spin Ang} {Oxs_UniformExchange::Run Max Spin Ang} Oxs_FixedZeeman::Energy Oxs_TimeDriver::Iteration {Oxs_TimeDriver::Stage iteration} Oxs_TimeDriver::Stage Oxs_TimeDriver::mx   Oxs_TimeDriver::my   Oxs_TimeDriver::mz   {Oxs_TimeDriver::Last time step} {Oxs_TimeDriver::Simulation time}
# Units:                    J                                      {}                                  deg/ns                           J/s                            J                             J                              deg                                    deg                                      deg                              J                       {}                            {}                          {}                   {}                   {}                   {}                          s                                 s                
                   -5.438515601330624e-18                    37                                    12408.729175234907            -1.1516333034737301e-07          -8.5179843788956296e-20           0                               0                                      0                                        0                              -5.438515601330624e-18      6                             6                           0                     0.95589123479908322  0.21477140490627555  0.20036264838753717        7.3916244509402759e-13              9.9999999999999998e-13       
                   -5.5535761298127908e-18                    44                                    12397.628087094479            -1.1495736785033893e-07          -1.1506052848216642e-19           0                               0                                      0                                        0                              -5.5535761298127908e-18      8                             1                           1                     0.88476659430780924  0.41871976516437714  0.2046016418742739         9.9999999999999998e-13              2e-12                     
                   -5.6684287262409756e-18                    51                                    12386.305051366755            -1.1474747738525374e-07          -1.1485259642818445e-19           0                               0                                      0                                        0                              -5.6684287262409756e-18      10                            1                           2                     0.77075073406630945  0.60194027490456814  0.20883297484846003        9.9999999999999998e-13              3.0000000000000001e-12       
                   -5.7830694779684045e-18                    58                                    12374.761117493426            -1.1453368965597123e-07          -1.1464075172742942e-19           0                               0                                      0                                        0                              -5.7830694779684045e-18      12                            1                           3                     0.61946988159337124  0.75555541971374185  0.21305650316262464        9.9999999999999998e-13              3.9999999999999999e-12       
                   -5.8974945032940043e-18                    65                                    12362.997352999673            -1.1431603584795076e-07          -1.1442502532559996e-19           0                               0                                      0                                        0                              -5.8974945032940043e-18      14                            1                           4                     0.43835451831561995  0.87214572054755268  0.21727208380938032        9.9999999999999998e-13              4.9999999999999997e-12       
# Table End
